<?xml version="1.0" encoding="UTF-8"?>

<!-- generated on Thu Sep  6 14:14:50 2018 by Eclipse SUMO GUI Version v0_32_0+2411-189ca3ff4b
<configuration xmlns:xsi="http://www.w3.org/2001/XMLSchema-instance" xsi:noNamespaceSchemaLocation="http://sumo.dlr.de/xsd/sumoConfiguration.xsd">

    <input>
        <net-file value="data/cross.net.xml"/>
        <route-files value="data/cross.rou.xml"/>
        <additional-files value="data/cross.det.xml"/>
    </input>

    <output>
        <emission-output value="emissions.xml"/>
        <tripinfo-output value="tripinfo.xml"/>
    </output>

    <time>
        <begin value="0"/>
    </time>

    <report>
        <verbose value="true"/>
        <no-step-log value="true"/>
    </report>

    <traci_server>
        <remote-port value="51681"/>
    </traci_server>

</configuration>
-->

<detector xmlns:xsi="http://www.w3.org/2001/XMLSchema-instance" xsi:noNamespaceSchemaLocation="http://sumo.dlr.de/xsd/det_e1_file.xsd">
    <tlsState time="0.00" id="A" programID="0" phase="0" state="GGGggrrrrrGGGggrrrrr"/>
    <interval begin="0.00" end="1.00" id="nA" nVehContrib="0" flow="0.00" occupancy="0.00" speed="-1.00" length="-1.00" nVehEntered="0"/>
    <tlsState time="1.00" id="A" programID="0" phase="0" state="GGGggrrrrrGGGggrrrrr"/>
    <interval begin="1.00" end="2.00" id="nA" nVehContrib="0" flow="0.00" occupancy="0.00" speed="-1.00" length="-1.00" nVehEntered="0"/>
    <tlsState time="2.00" id="A" programID="0" phase="0" state="GGGggrrrrrGGGggrrrrr"/>
    <interval begin="2.00" end="3.00" id="nA" nVehContrib="0" flow="0.00" occupancy="0.00" speed="-1.00" length="-1.00" nVehEntered="0"/>
    <tlsState time="3.00" id="A" programID="0" phase="0" state="GGGggrrrrrGGGggrrrrr"/>
    <interval begin="3.00" end="4.00" id="nA" nVehContrib="0" flow="0.00" occupancy="0.00" speed="-1.00" length="-1.00" nVehEntered="0"/>
    <tlsState time="4.00" id="A" programID="0" phase="0" state="GGGggrrrrrGGGggrrrrr"/>
    <interval begin="4.00" end="5.00" id="nA" nVehContrib="0" flow="0.00" occupancy="0.00" speed="-1.00" length="-1.00" nVehEntered="0"/>
    <tlsState time="5.00" id="A" programID="0" phase="0" state="GGGggrrrrrGGGggrrrrr"/>
    <interval begin="5.00" end="6.00" id="nA" nVehContrib="0" flow="0.00" occupancy="0.00" speed="-1.00" length="-1.00" nVehEntered="0"/>
    <tlsState time="6.00" id="A" programID="0" phase="0" state="GGGggrrrrrGGGggrrrrr"/>
    <interval begin="6.00" end="7.00" id="nA" nVehContrib="0" flow="0.00" occupancy="0.00" speed="-1.00" length="-1.00" nVehEntered="0"/>
    <tlsState time="7.00" id="A" programID="0" phase="0" state="GGGggrrrrrGGGggrrrrr"/>
    <interval begin="7.00" end="8.00" id="nA" nVehContrib="0" flow="0.00" occupancy="0.00" speed="-1.00" length="-1.00" nVehEntered="0"/>
    <tlsState time="8.00" id="A" programID="0" phase="0" state="GGGggrrrrrGGGggrrrrr"/>
    <interval begin="8.00" end="9.00" id="nA" nVehContrib="0" flow="0.00" occupancy="0.00" speed="-1.00" length="-1.00" nVehEntered="0"/>
    <tlsState time="9.00" id="A" programID="0" phase="0" state="GGGggrrrrrGGGggrrrrr"/>
    <interval begin="9.00" end="10.00" id="nA" nVehContrib="0" flow="0.00" occupancy="0.00" speed="-1.00" length="-1.00" nVehEntered="0"/>
    <tlsState time="10.00" id="A" programID="0" phase="0" state="GGGggrrrrrGGGggrrrrr"/>
    <interval begin="10.00" end="11.00" id="nA" nVehContrib="0" flow="0.00" occupancy="0.00" speed="-1.00" length="-1.00" nVehEntered="0"/>
    <tlsState time="11.00" id="A" programID="0" phase="0" state="GGGggrrrrrGGGggrrrrr"/>
    <interval begin="11.00" end="12.00" id="nA" nVehContrib="0" flow="0.00" occupancy="0.00" speed="-1.00" length="-1.00" nVehEntered="0"/>
    <tlsState time="12.00" id="A" programID="0" phase="0" state="GGGggrrrrrGGGggrrrrr"/>
    <interval begin="12.00" end="13.00" id="nA" nVehContrib="0" flow="0.00" occupancy="0.00" speed="-1.00" length="-1.00" nVehEntered="0"/>
    <tlsState time="13.00" id="A" programID="0" phase="0" state="GGGggrrrrrGGGggrrrrr"/>
    <interval begin="13.00" end="14.00" id="nA" nVehContrib="0" flow="0.00" occupancy="0.00" speed="-1.00" length="-1.00" nVehEntered="0"/>
    <tlsState time="14.00" id="A" programID="0" phase="0" state="GGGggrrrrrGGGggrrrrr"/>
    <interval begin="14.00" end="15.00" id="nA" nVehContrib="0" flow="0.00" occupancy="0.00" speed="-1.00" length="-1.00" nVehEntered="0"/>
    <tlsState time="15.00" id="A" programID="0" phase="0" state="GGGggrrrrrGGGggrrrrr"/>
    <interval begin="15.00" end="16.00" id="nA" nVehContrib="0" flow="0.00" occupancy="0.00" speed="-1.00" length="-1.00" nVehEntered="0"/>
    <tlsState time="16.00" id="A" programID="0" phase="0" state="GGGggrrrrrGGGggrrrrr"/>
    <interval begin="16.00" end="17.00" id="nA" nVehContrib="0" flow="0.00" occupancy="0.00" speed="-1.00" length="-1.00" nVehEntered="0"/>
    <tlsState time="17.00" id="A" programID="0" phase="0" state="GGGggrrrrrGGGggrrrrr"/>
    <interval begin="17.00" end="18.00" id="nA" nVehContrib="0" flow="0.00" occupancy="0.00" speed="-1.00" length="-1.00" nVehEntered="0"/>
    <tlsState time="18.00" id="A" programID="0" phase="0" state="GGGggrrrrrGGGggrrrrr"/>
    <interval begin="18.00" end="19.00" id="nA" nVehContrib="0" flow="0.00" occupancy="0.00" speed="-1.00" length="-1.00" nVehEntered="0"/>
    <tlsState time="19.00" id="A" programID="0" phase="0" state="GGGggrrrrrGGGggrrrrr"/>
    <interval begin="19.00" end="20.00" id="nA" nVehContrib="0" flow="0.00" occupancy="0.00" speed="-1.00" length="-1.00" nVehEntered="0"/>
    <tlsState time="20.00" id="A" programID="0" phase="0" state="GGGggrrrrrGGGggrrrrr"/>
    <interval begin="20.00" end="21.00" id="nA" nVehContrib="0" flow="0.00" occupancy="0.00" speed="-1.00" length="-1.00" nVehEntered="0"/>
    <tlsState time="21.00" id="A" programID="0" phase="0" state="GGGggrrrrrGGGggrrrrr"/>
    <interval begin="21.00" end="22.00" id="nA" nVehContrib="0" flow="0.00" occupancy="0.00" speed="-1.00" length="-1.00" nVehEntered="0"/>
    <tlsState time="22.00" id="A" programID="0" phase="0" state="GGGggrrrrrGGGggrrrrr"/>
    <interval begin="22.00" end="23.00" id="nA" nVehContrib="0" flow="0.00" occupancy="0.00" speed="-1.00" length="-1.00" nVehEntered="0"/>
    <tlsState time="23.00" id="A" programID="0" phase="0" state="GGGggrrrrrGGGggrrrrr"/>
    <interval begin="23.00" end="24.00" id="nA" nVehContrib="0" flow="0.00" occupancy="0.00" speed="-1.00" length="-1.00" nVehEntered="0"/>
    <tlsState time="24.00" id="A" programID="0" phase="0" state="GGGggrrrrrGGGggrrrrr"/>
    <interval begin="24.00" end="25.00" id="nA" nVehContrib="0" flow="0.00" occupancy="0.00" speed="-1.00" length="-1.00" nVehEntered="0"/>
    <tlsState time="25.00" id="A" programID="0" phase="0" state="GGGggrrrrrGGGggrrrrr"/>
    <interval begin="25.00" end="26.00" id="nA" nVehContrib="0" flow="0.00" occupancy="4.76" speed="-1.00" length="-1.00" nVehEntered="1"/>
    <tlsState time="26.00" id="A" programID="0" phase="0" state="GGGggrrrrrGGGggrrrrr"/>
    <interval begin="26.00" end="27.00" id="nA" nVehContrib="1" flow="3600.00" occupancy="31.46" speed="13.81" length="5.00" nVehEntered="0"/>
    <tlsState time="27.00" id="A" programID="0" phase="0" state="GGGggrrrrrGGGggrrrrr"/>
    <interval begin="27.00" end="28.00" id="nA" nVehContrib="0" flow="0.00" occupancy="0.00" speed="-1.00" length="-1.00" nVehEntered="0"/>
    <tlsState time="28.00" id="A" programID="0" phase="0" state="GGGggrrrrrGGGggrrrrr"/>
    <interval begin="28.00" end="29.00" id="nA" nVehContrib="0" flow="0.00" occupancy="0.00" speed="-1.00" length="-1.00" nVehEntered="0"/>
    <tlsState time="29.00" id="A" programID="0" phase="0" state="GGGggrrrrrGGGggrrrrr"/>
    <interval begin="29.00" end="30.00" id="nA" nVehContrib="0" flow="0.00" occupancy="0.00" speed="-1.00" length="-1.00" nVehEntered="0"/>
    <tlsState time="30.00" id="A" programID="0" phase="0" state="GGGggrrrrrGGGggrrrrr"/>
    <interval begin="30.00" end="31.00" id="nA" nVehContrib="0" flow="0.00" occupancy="0.00" speed="-1.00" length="-1.00" nVehEntered="0"/>
    <tlsState time="31.00" id="A" programID="0" phase="0" state="GGGggrrrrrGGGggrrrrr"/>
    <interval begin="31.00" end="32.00" id="nA" nVehContrib="0" flow="0.00" occupancy="0.00" speed="-1.00" length="-1.00" nVehEntered="0"/>
    <tlsState time="32.00" id="A" programID="0" phase="0" state="GGGggrrrrrGGGggrrrrr"/>
    <interval begin="32.00" end="33.00" id="nA" nVehContrib="0" flow="0.00" occupancy="0.00" speed="-1.00" length="-1.00" nVehEntered="0"/>
    <tlsState time="33.00" id="A" programID="0" phase="0" state="GGGggrrrrrGGGggrrrrr"/>
    <interval begin="33.00" end="34.00" id="nA" nVehContrib="0" flow="0.00" occupancy="0.00" speed="-1.00" length="-1.00" nVehEntered="0"/>
    <tlsState time="34.00" id="A" programID="0" phase="0" state="GGGggrrrrrGGGggrrrrr"/>
    <interval begin="34.00" end="35.00" id="nA" nVehContrib="0" flow="0.00" occupancy="0.00" speed="-1.00" length="-1.00" nVehEntered="0"/>
    <tlsState time="35.00" id="A" programID="0" phase="0" state="GGGggrrrrrGGGggrrrrr"/>
    <interval begin="35.00" end="36.00" id="nA" nVehContrib="0" flow="0.00" occupancy="0.00" speed="-1.00" length="-1.00" nVehEntered="0"/>
    <tlsState time="36.00" id="A" programID="0" phase="0" state="GGGggrrrrrGGGggrrrrr"/>
    <interval begin="36.00" end="37.00" id="nA" nVehContrib="0" flow="0.00" occupancy="0.00" speed="-1.00" length="-1.00" nVehEntered="0"/>
    <tlsState time="37.00" id="A" programID="0" phase="0" state="GGGggrrrrrGGGggrrrrr"/>
    <interval begin="37.00" end="38.00" id="nA" nVehContrib="0" flow="0.00" occupancy="0.00" speed="-1.00" length="-1.00" nVehEntered="0"/>
    <tlsState time="38.00" id="A" programID="0" phase="0" state="GGGggrrrrrGGGggrrrrr"/>
    <interval begin="38.00" end="39.00" id="nA" nVehContrib="0" flow="0.00" occupancy="0.00" speed="-1.00" length="-1.00" nVehEntered="0"/>
    <tlsState time="39.00" id="A" programID="0" phase="0" state="GGGggrrrrrGGGggrrrrr"/>
    <interval begin="39.00" end="40.00" id="nA" nVehContrib="0" flow="0.00" occupancy="0.00" speed="-1.00" length="-1.00" nVehEntered="0"/>
    <tlsState time="40.00" id="A" programID="0" phase="0" state="GGGggrrrrrGGGggrrrrr"/>
    <interval begin="40.00" end="41.00" id="nA" nVehContrib="0" flow="0.00" occupancy="0.00" speed="-1.00" length="-1.00" nVehEntered="0"/>
    <tlsState time="41.00" id="A" programID="0" phase="0" state="GGGggrrrrrGGGggrrrrr"/>
    <interval begin="41.00" end="42.00" id="nA" nVehContrib="0" flow="0.00" occupancy="0.00" speed="-1.00" length="-1.00" nVehEntered="0"/>
    <tlsState time="42.00" id="A" programID="0" phase="1" state="yyyyyrrrrryyyyyrrrrr"/>
    <interval begin="42.00" end="43.00" id="nA" nVehContrib="0" flow="0.00" occupancy="0.00" speed="-1.00" length="-1.00" nVehEntered="0"/>
    <tlsState time="43.00" id="A" programID="0" phase="1" state="yyyyyrrrrryyyyyrrrrr"/>
    <interval begin="43.00" end="44.00" id="nA" nVehContrib="0" flow="0.00" occupancy="0.00" speed="-1.00" length="-1.00" nVehEntered="0"/>
    <tlsState time="44.00" id="A" programID="0" phase="1" state="yyyyyrrrrryyyyyrrrrr"/>
    <interval begin="44.00" end="45.00" id="nA" nVehContrib="0" flow="0.00" occupancy="0.00" speed="-1.00" length="-1.00" nVehEntered="0"/>
    <tlsState time="45.00" id="A" programID="0" phase="2" state="rrrrrGGGggrrrrrGGGgg"/>
    <interval begin="45.00" end="46.00" id="nA" nVehContrib="0" flow="0.00" occupancy="0.00" speed="-1.00" length="-1.00" nVehEntered="0"/>
    <tlsState time="46.00" id="A" programID="0" phase="2" state="rrrrrGGGggrrrrrGGGgg"/>
    <interval begin="46.00" end="47.00" id="nA" nVehContrib="0" flow="0.00" occupancy="0.00" speed="-1.00" length="-1.00" nVehEntered="0"/>
    <tlsState time="47.00" id="A" programID="0" phase="2" state="rrrrrGGGggrrrrrGGGgg"/>
    <interval begin="47.00" end="48.00" id="nA" nVehContrib="0" flow="0.00" occupancy="0.00" speed="-1.00" length="-1.00" nVehEntered="0"/>
    <tlsState time="48.00" id="A" programID="0" phase="2" state="rrrrrGGGggrrrrrGGGgg"/>
    <interval begin="48.00" end="49.00" id="nA" nVehContrib="1" flow="3600.00" occupancy="64.50" speed="7.75" length="5.00" nVehEntered="1"/>
    <tlsState time="49.00" id="A" programID="0" phase="2" state="rrrrrGGGggrrrrrGGGgg"/>
    <interval begin="49.00" end="50.00" id="nA" nVehContrib="0" flow="0.00" occupancy="0.00" speed="-1.00" length="-1.00" nVehEntered="0"/>
    <tlsState time="50.00" id="A" programID="0" phase="2" state="rrrrrGGGggrrrrrGGGgg"/>
    <interval begin="50.00" end="51.00" id="nA" nVehContrib="0" flow="0.00" occupancy="0.00" speed="-1.00" length="-1.00" nVehEntered="0"/>
    <tlsState time="51.00" id="A" programID="0" phase="2" state="rrrrrGGGggrrrrrGGGgg"/>
    <interval begin="51.00" end="52.00" id="nA" nVehContrib="0" flow="0.00" occupancy="0.00" speed="-1.00" length="-1.00" nVehEntered="0"/>
    <tlsState time="52.00" id="A" programID="0" phase="2" state="rrrrrGGGggrrrrrGGGgg"/>
    <interval begin="52.00" end="53.00" id="nA" nVehContrib="0" flow="0.00" occupancy="0.00" speed="-1.00" length="-1.00" nVehEntered="0"/>
    <tlsState time="53.00" id="A" programID="0" phase="2" state="rrrrrGGGggrrrrrGGGgg"/>
    <interval begin="53.00" end="54.00" id="nA" nVehContrib="0" flow="0.00" occupancy="0.00" speed="-1.00" length="-1.00" nVehEntered="0"/>
    <tlsState time="54.00" id="A" programID="0" phase="2" state="rrrrrGGGggrrrrrGGGgg"/>
    <interval begin="54.00" end="55.00" id="nA" nVehContrib="0" flow="0.00" occupancy="0.00" speed="-1.00" length="-1.00" nVehEntered="0"/>
    <tlsState time="55.00" id="A" programID="0" phase="2" state="rrrrrGGGggrrrrrGGGgg"/>
    <interval begin="55.00" end="56.00" id="nA" nVehContrib="0" flow="0.00" occupancy="0.00" speed="-1.00" length="-1.00" nVehEntered="0"/>
    <tlsState time="56.00" id="A" programID="0" phase="2" state="rrrrrGGGggrrrrrGGGgg"/>
    <interval begin="56.00" end="57.00" id="nA" nVehContrib="0" flow="0.00" occupancy="0.00" speed="-1.00" length="-1.00" nVehEntered="0"/>
    <tlsState time="57.00" id="A" programID="0" phase="2" state="rrrrrGGGggrrrrrGGGgg"/>
    <interval begin="57.00" end="58.00" id="nA" nVehContrib="0" flow="0.00" occupancy="0.00" speed="-1.00" length="-1.00" nVehEntered="0"/>
    <tlsState time="58.00" id="A" programID="0" phase="2" state="rrrrrGGGggrrrrrGGGgg"/>
    <interval begin="58.00" end="59.00" id="nA" nVehContrib="0" flow="0.00" occupancy="0.00" speed="-1.00" length="-1.00" nVehEntered="0"/>
    <tlsState time="59.00" id="A" programID="0" phase="2" state="rrrrrGGGggrrrrrGGGgg"/>
    <interval begin="59.00" end="60.00" id="nA" nVehContrib="0" flow="0.00" occupancy="25.78" speed="-1.00" length="-1.00" nVehEntered="1"/>
    <tlsState time="60.00" id="A" programID="0" phase="2" state="rrrrrGGGggrrrrrGGGgg"/>
    <interval begin="60.00" end="61.00" id="nA" nVehContrib="0" flow="0.00" occupancy="100.00" speed="-1.00" length="-1.00" nVehEntered="0"/>
    <tlsState time="61.00" id="A" programID="0" phase="2" state="rrrrrGGGggrrrrrGGGgg"/>
    <interval begin="61.00" end="62.00" id="nA" nVehContrib="0" flow="0.00" occupancy="100.00" speed="-1.00" length="-1.00" nVehEntered="0"/>
    <tlsState time="62.00" id="A" programID="0" phase="2" state="rrrrrGGGggrrrrrGGGgg"/>
    <interval begin="62.00" end="63.00" id="nA" nVehContrib="0" flow="0.00" occupancy="100.00" speed="-1.00" length="-1.00" nVehEntered="0"/>
    <tlsState time="63.00" id="A" programID="0" phase="2" state="rrrrrGGGggrrrrrGGGgg"/>
    <interval begin="63.00" end="64.00" id="nA" nVehContrib="0" flow="0.00" occupancy="100.00" speed="-1.00" length="-1.00" nVehEntered="0"/>
    <tlsState time="64.00" id="A" programID="0" phase="2" state="rrrrrGGGggrrrrrGGGgg"/>
    <interval begin="64.00" end="65.00" id="nA" nVehContrib="0" flow="0.00" occupancy="100.00" speed="-1.00" length="-1.00" nVehEntered="0"/>
    <tlsState time="65.00" id="A" programID="0" phase="2" state="rrrrrGGGggrrrrrGGGgg"/>
    <interval begin="65.00" end="66.00" id="nA" nVehContrib="0" flow="0.00" occupancy="100.00" speed="-1.00" length="-1.00" nVehEntered="0"/>
    <tlsState time="66.00" id="A" programID="0" phase="2" state="rrrrrGGGggrrrrrGGGgg"/>
    <interval begin="66.00" end="67.00" id="nA" nVehContrib="0" flow="0.00" occupancy="100.00" speed="-1.00" length="-1.00" nVehEntered="0"/>
    <tlsState time="67.00" id="A" programID="0" phase="2" state="rrrrrGGGggrrrrrGGGgg"/>
    <interval begin="67.00" end="68.00" id="nA" nVehContrib="0" flow="0.00" occupancy="100.00" speed="-1.00" length="-1.00" nVehEntered="0"/>
    <tlsState time="68.00" id="A" programID="0" phase="2" state="rrrrrGGGggrrrrrGGGgg"/>
    <interval begin="68.00" end="69.00" id="nA" nVehContrib="0" flow="0.00" occupancy="100.00" speed="-1.00" length="-1.00" nVehEntered="0"/>
    <tlsState time="69.00" id="A" programID="0" phase="2" state="rrrrrGGGggrrrrrGGGgg"/>
    <interval begin="69.00" end="70.00" id="nA" nVehContrib="0" flow="0.00" occupancy="100.00" speed="-1.00" length="-1.00" nVehEntered="0"/>
    <tlsState time="70.00" id="A" programID="0" phase="2" state="rrrrrGGGggrrrrrGGGgg"/>
    <interval begin="70.00" end="71.00" id="nA" nVehContrib="0" flow="0.00" occupancy="100.00" speed="-1.00" length="-1.00" nVehEntered="0"/>
    <tlsState time="71.00" id="A" programID="0" phase="2" state="rrrrrGGGggrrrrrGGGgg"/>
    <interval begin="71.00" end="72.00" id="nA" nVehContrib="0" flow="0.00" occupancy="100.00" speed="-1.00" length="-1.00" nVehEntered="0"/>
    <tlsState time="72.00" id="A" programID="0" phase="2" state="rrrrrGGGggrrrrrGGGgg"/>
    <interval begin="72.00" end="73.00" id="nA" nVehContrib="0" flow="0.00" occupancy="100.00" speed="-1.00" length="-1.00" nVehEntered="0"/>
    <tlsState time="73.00" id="A" programID="0" phase="2" state="rrrrrGGGggrrrrrGGGgg"/>
    <interval begin="73.00" end="74.00" id="nA" nVehContrib="0" flow="0.00" occupancy="100.00" speed="-1.00" length="-1.00" nVehEntered="0"/>
    <tlsState time="74.00" id="A" programID="0" phase="2" state="rrrrrGGGggrrrrrGGGgg"/>
    <interval begin="74.00" end="75.00" id="nA" nVehContrib="0" flow="0.00" occupancy="100.00" speed="-1.00" length="-1.00" nVehEntered="0"/>
    <tlsState time="75.00" id="A" programID="0" phase="2" state="rrrrrGGGggrrrrrGGGgg"/>
    <interval begin="75.00" end="76.00" id="nA" nVehContrib="0" flow="0.00" occupancy="100.00" speed="-1.00" length="-1.00" nVehEntered="0"/>
    <tlsState time="76.00" id="A" programID="0" phase="2" state="rrrrrGGGggrrrrrGGGgg"/>
    <interval begin="76.00" end="77.00" id="nA" nVehContrib="0" flow="0.00" occupancy="100.00" speed="-1.00" length="-1.00" nVehEntered="0"/>
    <tlsState time="77.00" id="A" programID="0" phase="2" state="rrrrrGGGggrrrrrGGGgg"/>
    <interval begin="77.00" end="78.00" id="nA" nVehContrib="0" flow="0.00" occupancy="100.00" speed="-1.00" length="-1.00" nVehEntered="0"/>
    <tlsState time="78.00" id="A" programID="0" phase="2" state="rrrrrGGGggrrrrrGGGgg"/>
    <interval begin="78.00" end="79.00" id="nA" nVehContrib="0" flow="0.00" occupancy="100.00" speed="-1.00" length="-1.00" nVehEntered="0"/>
    <tlsState time="79.00" id="A" programID="0" phase="2" state="rrrrrGGGggrrrrrGGGgg"/>
    <interval begin="79.00" end="80.00" id="nA" nVehContrib="0" flow="0.00" occupancy="100.00" speed="-1.00" length="-1.00" nVehEntered="0"/>
    <tlsState time="80.00" id="A" programID="0" phase="2" state="rrrrrGGGggrrrrrGGGgg"/>
    <interval begin="80.00" end="81.00" id="nA" nVehContrib="0" flow="0.00" occupancy="100.00" speed="-1.00" length="-1.00" nVehEntered="0"/>
    <tlsState time="81.00" id="A" programID="0" phase="2" state="rrrrrGGGggrrrrrGGGgg"/>
    <interval begin="81.00" end="82.00" id="nA" nVehContrib="0" flow="0.00" occupancy="100.00" speed="-1.00" length="-1.00" nVehEntered="0"/>
    <tlsState time="82.00" id="A" programID="0" phase="2" state="rrrrrGGGggrrrrrGGGgg"/>
    <interval begin="82.00" end="83.00" id="nA" nVehContrib="0" flow="0.00" occupancy="100.00" speed="-1.00" length="-1.00" nVehEntered="0"/>
    <tlsState time="83.00" id="A" programID="0" phase="2" state="rrrrrGGGggrrrrrGGGgg"/>
    <interval begin="83.00" end="84.00" id="nA" nVehContrib="0" flow="0.00" occupancy="100.00" speed="-1.00" length="-1.00" nVehEntered="0"/>
    <tlsState time="84.00" id="A" programID="0" phase="2" state="rrrrrGGGggrrrrrGGGgg"/>
    <interval begin="84.00" end="85.00" id="nA" nVehContrib="0" flow="0.00" occupancy="100.00" speed="-1.00" length="-1.00" nVehEntered="0"/>
    <tlsState time="85.00" id="A" programID="0" phase="2" state="rrrrrGGGggrrrrrGGGgg"/>
    <interval begin="85.00" end="86.00" id="nA" nVehContrib="0" flow="0.00" occupancy="100.00" speed="-1.00" length="-1.00" nVehEntered="0"/>
    <tlsState time="86.00" id="A" programID="0" phase="2" state="rrrrrGGGggrrrrrGGGgg"/>
    <interval begin="86.00" end="87.00" id="nA" nVehContrib="0" flow="0.00" occupancy="100.00" speed="-1.00" length="-1.00" nVehEntered="0"/>
    <tlsState time="87.00" id="A" programID="0" phase="3" state="rrrrryyyyyrrrrryyyyy"/>
    <interval begin="87.00" end="88.00" id="nA" nVehContrib="0" flow="0.00" occupancy="100.00" speed="-1.00" length="-1.00" nVehEntered="0"/>
    <tlsState time="88.00" id="A" programID="0" phase="3" state="rrrrryyyyyrrrrryyyyy"/>
    <interval begin="88.00" end="89.00" id="nA" nVehContrib="0" flow="0.00" occupancy="100.00" speed="-1.00" length="-1.00" nVehEntered="0"/>
    <tlsState time="89.00" id="A" programID="0" phase="3" state="rrrrryyyyyrrrrryyyyy"/>
    <interval begin="89.00" end="90.00" id="nA" nVehContrib="0" flow="0.00" occupancy="100.00" speed="-1.00" length="-1.00" nVehEntered="0"/>
    <tlsState time="90.00" id="A" programID="0" phase="0" state="GGGggrrrrrGGGggrrrrr"/>
    <interval begin="90.00" end="91.00" id="nA" nVehContrib="0" flow="0.00" occupancy="100.00" speed="-1.00" length="-1.00" nVehEntered="0"/>
    <tlsState time="91.00" id="A" programID="0" phase="0" state="GGGggrrrrrGGGggrrrrr"/>
    <interval begin="91.00" end="92.00" id="nA" nVehContrib="0" flow="0.00" occupancy="100.00" speed="-1.00" length="-1.00" nVehEntered="0"/>
    <tlsState time="92.00" id="A" programID="0" phase="0" state="GGGggrrrrrGGGggrrrrr"/>
    <interval begin="92.00" end="93.00" id="nA" nVehContrib="0" flow="0.00" occupancy="100.00" speed="-1.00" length="-1.00" nVehEntered="0"/>
    <tlsState time="93.00" id="A" programID="0" phase="0" state="GGGggrrrrrGGGggrrrrr"/>
    <interval begin="93.00" end="94.00" id="nA" nVehContrib="0" flow="0.00" occupancy="100.00" speed="-1.00" length="-1.00" nVehEntered="0"/>
    <tlsState time="94.00" id="A" programID="0" phase="0" state="GGGggrrrrrGGGggrrrrr"/>
    <interval begin="94.00" end="95.00" id="nA" nVehContrib="1" flow="3600.00" occupancy="12.45" speed="0.15" length="5.00" nVehEntered="0"/>
    <tlsState time="95.00" id="A" programID="0" phase="0" state="GGGggrrrrrGGGggrrrrr"/>
    <interval begin="95.00" end="96.00" id="nA" nVehContrib="0" flow="0.00" occupancy="0.00" speed="-1.00" length="-1.00" nVehEntered="0"/>
    <tlsState time="96.00" id="A" programID="0" phase="0" state="GGGggrrrrrGGGggrrrrr"/>
    <interval begin="96.00" end="97.00" id="nA" nVehContrib="0" flow="0.00" occupancy="34.39" speed="-1.00" length="-1.00" nVehEntered="1"/>
    <tlsState time="97.00" id="A" programID="0" phase="0" state="GGGggrrrrrGGGggrrrrr"/>
    <interval begin="97.00" end="98.00" id="nA" nVehContrib="0" flow="0.00" occupancy="100.00" speed="-1.00" length="-1.00" nVehEntered="0"/>
    <tlsState time="98.00" id="A" programID="0" phase="0" state="GGGggrrrrrGGGggrrrrr"/>
    <interval begin="98.00" end="99.00" id="nA" nVehContrib="1" flow="3600.00" occupancy="20.21" speed="3.23" length="5.00" nVehEntered="0"/>
    <tlsState time="99.00" id="A" programID="0" phase="0" state="GGGggrrrrrGGGggrrrrr"/>
    <interval begin="99.00" end="100.00" id="nA" nVehContrib="0" flow="0.00" occupancy="0.00" speed="-1.00" length="-1.00" nVehEntered="0"/>
    <tlsState time="100.00" id="A" programID="0" phase="0" state="GGGggrrrrrGGGggrrrrr"/>
    <interval begin="100.00" end="101.00" id="nA" nVehContrib="0" flow="0.00" occupancy="90.86" speed="-1.00" length="-1.00" nVehEntered="1"/>
    <tlsState time="101.00" id="A" programID="0" phase="0" state="GGGggrrrrrGGGggrrrrr"/>
    <interval begin="101.00" end="102.00" id="nA" nVehContrib="1" flow="3600.00" occupancy="22.78" speed="4.40" length="5.00" nVehEntered="0"/>
    <tlsState time="102.00" id="A" programID="0" phase="0" state="GGGggrrrrrGGGggrrrrr"/>
    <interval begin="102.00" end="103.00" id="nA" nVehContrib="0" flow="0.00" occupancy="0.00" speed="-1.00" length="-1.00" nVehEntered="0"/>
    <tlsState time="103.00" id="A" programID="0" phase="0" state="GGGggrrrrrGGGggrrrrr"/>
    <interval begin="103.00" end="104.00" id="nA" nVehContrib="0" flow="0.00" occupancy="0.00" speed="-1.00" length="-1.00" nVehEntered="0"/>
    <tlsState time="104.00" id="A" programID="0" phase="0" state="GGGggrrrrrGGGggrrrrr"/>
    <interval begin="104.00" end="105.00" id="nA" nVehContrib="1" flow="3600.00" occupancy="47.01" speed="10.64" length="5.00" nVehEntered="1"/>
    <tlsState time="105.00" id="A" programID="0" phase="0" state="GGGggrrrrrGGGggrrrrr"/>
    <interval begin="105.00" end="106.00" id="nA" nVehContrib="0" flow="0.00" occupancy="0.00" speed="-1.00" length="-1.00" nVehEntered="0"/>
    <tlsState time="106.00" id="A" programID="0" phase="0" state="GGGggrrrrrGGGggrrrrr"/>
    <interval begin="106.00" end="107.00" id="nA" nVehContrib="0" flow="0.00" occupancy="0.00" speed="-1.00" length="-1.00" nVehEntered="0"/>
    <tlsState time="107.00" id="A" programID="0" phase="0" state="GGGggrrrrrGGGggrrrrr"/>
    <interval begin="107.00" end="108.00" id="nA" nVehContrib="0" flow="0.00" occupancy="0.00" speed="-1.00" length="-1.00" nVehEntered="0"/>
    <tlsState time="108.00" id="A" programID="0" phase="0" state="GGGggrrrrrGGGggrrrrr"/>
    <interval begin="108.00" end="109.00" id="nA" nVehContrib="0" flow="0.00" occupancy="0.00" speed="-1.00" length="-1.00" nVehEntered="0"/>
    <tlsState time="109.00" id="A" programID="0" phase="0" state="GGGggrrrrrGGGggrrrrr"/>
    <interval begin="109.00" end="110.00" id="nA" nVehContrib="0" flow="0.00" occupancy="1.08" speed="-1.00" length="-1.00" nVehEntered="1"/>
    <tlsState time="110.00" id="A" programID="0" phase="0" state="GGGggrrrrrGGGggrrrrr"/>
    <interval begin="110.00" end="111.00" id="nA" nVehContrib="1" flow="3600.00" occupancy="35.56" speed="13.65" length="5.00" nVehEntered="0"/>
    <tlsState time="111.00" id="A" programID="0" phase="0" state="GGGggrrrrrGGGggrrrrr"/>
    <interval begin="111.00" end="112.00" id="nA" nVehContrib="0" flow="0.00" occupancy="0.00" speed="-1.00" length="-1.00" nVehEntered="0"/>
    <tlsState time="112.00" id="A" programID="0" phase="0" state="GGGggrrrrrGGGggrrrrr"/>
    <interval begin="112.00" end="113.00" id="nA" nVehContrib="0" flow="0.00" occupancy="0.00" speed="-1.00" length="-1.00" nVehEntered="0"/>
    <tlsState time="113.00" id="A" programID="0" phase="0" state="GGGggrrrrrGGGggrrrrr"/>
    <interval begin="113.00" end="114.00" id="nA" nVehContrib="0" flow="0.00" occupancy="0.00" speed="-1.00" length="-1.00" nVehEntered="0"/>
    <tlsState time="114.00" id="A" programID="0" phase="0" state="GGGggrrrrrGGGggrrrrr"/>
    <interval begin="114.00" end="115.00" id="nA" nVehContrib="0" flow="0.00" occupancy="0.00" speed="-1.00" length="-1.00" nVehEntered="0"/>
    <tlsState time="115.00" id="A" programID="0" phase="0" state="GGGggrrrrrGGGggrrrrr"/>
    <interval begin="115.00" end="116.00" id="nA" nVehContrib="1" flow="3600.00" occupancy="36.24" speed="13.80" length="5.00" nVehEntered="1"/>
    <tlsState time="116.00" id="A" programID="0" phase="0" state="GGGggrrrrrGGGggrrrrr"/>
    <interval begin="116.00" end="117.00" id="nA" nVehContrib="0" flow="0.00" occupancy="0.00" speed="-1.00" length="-1.00" nVehEntered="0"/>
    <tlsState time="117.00" id="A" programID="0" phase="0" state="GGGggrrrrrGGGggrrrrr"/>
    <interval begin="117.00" end="118.00" id="nA" nVehContrib="0" flow="0.00" occupancy="0.00" speed="-1.00" length="-1.00" nVehEntered="0"/>
    <tlsState time="118.00" id="A" programID="0" phase="0" state="GGGggrrrrrGGGggrrrrr"/>
    <interval begin="118.00" end="119.00" id="nA" nVehContrib="0" flow="0.00" occupancy="0.00" speed="-1.00" length="-1.00" nVehEntered="0"/>
    <tlsState time="119.00" id="A" programID="0" phase="0" state="GGGggrrrrrGGGggrrrrr"/>
    <interval begin="119.00" end="120.00" id="nA" nVehContrib="0" flow="0.00" occupancy="0.00" speed="-1.00" length="-1.00" nVehEntered="0"/>
    <tlsState time="120.00" id="A" programID="0" phase="0" state="GGGggrrrrrGGGggrrrrr"/>
    <interval begin="120.00" end="121.00" id="nA" nVehContrib="0" flow="0.00" occupancy="0.00" speed="-1.00" length="-1.00" nVehEntered="0"/>
    <tlsState time="121.00" id="A" programID="0" phase="0" state="GGGggrrrrrGGGggrrrrr"/>
    <interval begin="121.00" end="122.00" id="nA" nVehContrib="0" flow="0.00" occupancy="0.00" speed="-1.00" length="-1.00" nVehEntered="0"/>
    <tlsState time="122.00" id="A" programID="0" phase="0" state="GGGggrrrrrGGGggrrrrr"/>
    <interval begin="122.00" end="123.00" id="nA" nVehContrib="0" flow="0.00" occupancy="0.00" speed="-1.00" length="-1.00" nVehEntered="0"/>
    <tlsState time="123.00" id="A" programID="0" phase="0" state="GGGggrrrrrGGGggrrrrr"/>
    <interval begin="123.00" end="124.00" id="nA" nVehContrib="0" flow="0.00" occupancy="0.00" speed="-1.00" length="-1.00" nVehEntered="0"/>
    <tlsState time="124.00" id="A" programID="0" phase="0" state="GGGggrrrrrGGGggrrrrr"/>
    <interval begin="124.00" end="125.00" id="nA" nVehContrib="0" flow="0.00" occupancy="0.00" speed="-1.00" length="-1.00" nVehEntered="0"/>
    <tlsState time="125.00" id="A" programID="0" phase="0" state="GGGggrrrrrGGGggrrrrr"/>
    <interval begin="125.00" end="126.00" id="nA" nVehContrib="0" flow="0.00" occupancy="0.00" speed="-1.00" length="-1.00" nVehEntered="0"/>