<?xml version="1.0" encoding="UTF-8"?>

<!-- generated on Thu Sep  6 14:36:50 2018 by Eclipse SUMO GUI Version v0_32_0+2411-189ca3ff4b
<configuration xmlns:xsi="http://www.w3.org/2001/XMLSchema-instance" xsi:noNamespaceSchemaLocation="http://sumo.dlr.de/xsd/sumoConfiguration.xsd">

    <input>
        <net-file value="data/cross.net.xml"/>
        <route-files value="data/cross.rou.xml"/>
        <additional-files value="data/cross.det.xml"/>
    </input>

    <output>
        <tripinfo-output value="tripinfo.xml"/>
    </output>

    <time>
        <begin value="0"/>
    </time>

    <report>
        <verbose value="true"/>
        <no-step-log value="true"/>
    </report>

    <traci_server>
        <remote-port value="51928"/>
    </traci_server>

</configuration>
-->

<tripinfos xmlns:xsi="http://www.w3.org/2001/XMLSchema-instance" xsi:noNamespaceSchemaLocation="http://sumo.dlr.de/xsd/tripinfo_file.xsd">
    <tripinfo id="car_16" depart="10.00" departLane="n2A_0" departPos="5.10" departSpeed="0.00" departDelay="0.00" arrival="51.00" arrivalLane="A2s_0" arrivalPos="189.60" arrivalSpeed="13.86" duration="41.00" routeLength="394.90" waitingTime="0.00" waitingCount="0" stopTime="0.00" timeLoss="12.13" rerouteNo="0" devices="tripinfo_car_16" vType="typeCar" speedFactor="1.00" vaporized=""/>
    <tripinfo id="car_21" depart="15.00" departLane="n2A_0" departPos="5.10" departSpeed="0.00" departDelay="2.00" arrival="56.00" arrivalLane="A2s_0" arrivalPos="189.60" arrivalSpeed="13.56" duration="41.00" routeLength="394.90" waitingTime="0.00" waitingCount="0" stopTime="0.00" timeLoss="12.03" rerouteNo="0" devices="tripinfo_car_21" vType="typeCar" speedFactor="1.00" vaporized=""/>
    <tripinfo id="car_5" depart="7.00" departLane="e2A_0" departPos="5.10" departSpeed="0.00" departDelay="4.00" arrival="70.00" arrivalLane="A2w_1" arrivalPos="189.60" arrivalSpeed="13.65" duration="63.00" routeLength="394.90" waitingTime="11.00" waitingCount="1" stopTime="0.00" timeLoss="34.34" rerouteNo="0" devices="tripinfo_car_5" vType="typeCar" speedFactor="1.00" vaporized=""/>
    <tripinfo id="car_3" depart="2.00" departLane="e2A_0" departPos="5.10" departSpeed="0.00" departDelay="0.00" arrival="71.00" arrivalLane="A2w_0" arrivalPos="189.60" arrivalSpeed="13.58" duration="69.00" routeLength="394.90" waitingTime="16.00" waitingCount="1" stopTime="0.00" timeLoss="40.36" rerouteNo="0" devices="tripinfo_car_3" vType="typeCar" speedFactor="1.00" vaporized=""/>
    <tripinfo id="car_1" depart="5.00" departLane="w2A_0" departPos="5.10" departSpeed="0.00" departDelay="4.00" arrival="71.00" arrivalLane="A2e_1" arrivalPos="189.60" arrivalSpeed="13.61" duration="66.00" routeLength="394.90" waitingTime="13.00" waitingCount="1" stopTime="0.00" timeLoss="36.63" rerouteNo="0" devices="tripinfo_car_1" vType="typeCar" speedFactor="1.00" vaporized=""/>
    <tripinfo id="car_0" depart="0.00" departLane="w2A_0" departPos="5.10" departSpeed="0.00" departDelay="0.00" arrival="71.00" arrivalLane="A2e_0" arrivalPos="189.60" arrivalSpeed="13.64" duration="71.00" routeLength="394.90" waitingTime="19.00" waitingCount="1" stopTime="0.00" timeLoss="42.27" rerouteNo="0" devices="tripinfo_car_0" vType="typeCar" speedFactor="1.00" vaporized=""/>
    <tripinfo id="car_9" depart="17.00" departLane="e2A_0" departPos="5.10" departSpeed="0.00" departDelay="12.00" arrival="72.00" arrivalLane="A2w_1" arrivalPos="189.60" arrivalSpeed="13.64" duration="55.00" routeLength="394.90" waitingTime="1.00" waitingCount="1" stopTime="0.00" timeLoss="26.14" rerouteNo="0" devices="tripinfo_car_9" vType="typeCar" speedFactor="1.00" vaporized=""/>
    <tripinfo id="car_4" depart="15.00" departLane="w2A_0" departPos="5.10" departSpeed="0.00" departDelay="12.00" arrival="72.00" arrivalLane="A2e_1" arrivalPos="189.60" arrivalSpeed="13.79" duration="57.00" routeLength="394.90" waitingTime="2.00" waitingCount="1" stopTime="0.00" timeLoss="28.41" rerouteNo="0" devices="tripinfo_car_4" vType="typeCar" speedFactor="1.00" vaporized=""/>
    <tripinfo id="car_7" depart="12.00" departLane="e2A_0" departPos="5.10" departSpeed="0.00" departDelay="8.00" arrival="73.00" arrivalLane="A2w_0" arrivalPos="189.60" arrivalSpeed="13.73" duration="61.00" routeLength="394.90" waitingTime="8.00" waitingCount="1" stopTime="0.00" timeLoss="32.54" rerouteNo="0" devices="tripinfo_car_7" vType="typeCar" speedFactor="1.00" vaporized=""/>
    <tripinfo id="car_2" depart="10.00" departLane="w2A_0" departPos="5.10" departSpeed="0.00" departDelay="8.00" arrival="73.00" arrivalLane="A2e_0" arrivalPos="189.60" arrivalSpeed="13.69" duration="63.00" routeLength="394.90" waitingTime="10.00" waitingCount="1" stopTime="0.00" timeLoss="34.06" rerouteNo="0" devices="tripinfo_car_2" vType="typeCar" speedFactor="1.00" vaporized=""/>
    <tripinfo id="car_13" depart="27.00" departLane="e2A_0" departPos="5.10" departSpeed="0.00" departDelay="19.00" arrival="74.00" arrivalLane="A2w_1" arrivalPos="189.60" arrivalSpeed="13.63" duration="47.00" routeLength="394.90" waitingTime="0.00" waitingCount="0" stopTime="0.00" timeLoss="18.02" rerouteNo="0" devices="tripinfo_car_13" vType="typeCar" speedFactor="1.00" vaporized=""/>
    <tripinfo id="car_8" depart="25.00" departLane="w2A_0" departPos="5.10" departSpeed="0.00" departDelay="20.00" arrival="75.00" arrivalLane="A2e_1" arrivalPos="189.60" arrivalSpeed="13.79" duration="50.00" routeLength="394.90" waitingTime="0.00" waitingCount="0" stopTime="0.00" timeLoss="20.77" rerouteNo="0" devices="tripinfo_car_8" vType="typeCar" speedFactor="1.00" vaporized=""/>
    <tripinfo id="car_6" depart="20.00" departLane="w2A_0" departPos="5.10" departSpeed="0.00" departDelay="16.00" arrival="75.00" arrivalLane="A2e_0" arrivalPos="189.60" arrivalSpeed="13.75" duration="55.00" routeLength="394.90" waitingTime="2.00" waitingCount="1" stopTime="0.00" timeLoss="25.73" rerouteNo="0" devices="tripinfo_car_6" vType="typeCar" speedFactor="1.00" vaporized=""/>
    <tripinfo id="car_12" depart="22.00" departLane="e2A_0" departPos="5.10" departSpeed="0.00" departDelay="15.00" arrival="76.00" arrivalLane="A2w_0" arrivalPos="189.60" arrivalSpeed="13.73" duration="54.00" routeLength="394.90" waitingTime="0.00" waitingCount="0" stopTime="0.00" timeLoss="24.87" rerouteNo="0" devices="tripinfo_car_12" vType="typeCar" speedFactor="1.00" vaporized=""/>
    <tripinfo id="car_15" depart="32.00" departLane="e2A_0" departPos="5.10" departSpeed="0.00" departDelay="23.00" arrival="76.00" arrivalLane="A2w_1" arrivalPos="189.60" arrivalSpeed="13.68" duration="44.00" routeLength="394.90" waitingTime="0.00" waitingCount="0" stopTime="0.00" timeLoss="14.76" rerouteNo="0" devices="tripinfo_car_15" vType="typeCar" speedFactor="1.00" vaporized=""/>
    <tripinfo id="car_11" depart="35.00" departLane="w2A_0" departPos="5.10" departSpeed="0.00" departDelay="28.00" arrival="76.00" arrivalLane="A2e_1" arrivalPos="189.60" arrivalSpeed="13.78" duration="41.00" routeLength="394.90" waitingTime="0.00" waitingCount="0" stopTime="0.00" timeLoss="12.42" rerouteNo="0" devices="tripinfo_car_11" vType="typeCar" speedFactor="1.00" vaporized=""/>
    <tripinfo id="car_10" depart="30.00" departLane="w2A_0" departPos="5.10" departSpeed="0.00" departDelay="24.00" arrival="76.00" arrivalLane="A2e_0" arrivalPos="189.60" arrivalSpeed="13.70" duration="46.00" routeLength="394.90" waitingTime="0.00" waitingCount="0" stopTime="0.00" timeLoss="17.33" rerouteNo="0" devices="tripinfo_car_10" vType="typeCar" speedFactor="1.00" vaporized=""/>
    <tripinfo id="car_18" depart="37.00" departLane="e2A_0" departPos="5.10" departSpeed="0.00" departDelay="27.00" arrival="77.00" arrivalLane="A2w_0" arrivalPos="189.60" arrivalSpeed="13.69" duration="40.00" routeLength="394.90" waitingTime="0.00" waitingCount="0" stopTime="0.00" timeLoss="11.48" rerouteNo="0" devices="tripinfo_car_18" vType="typeCar" speedFactor="1.00" vaporized=""/>
    <tripinfo id="car_14" depart="40.00" departLane="w2A_0" departPos="5.10" departSpeed="0.00" departDelay="31.00" arrival="81.00" arrivalLane="A2e_0" arrivalPos="189.60" arrivalSpeed="13.54" duration="41.00" routeLength="394.90" waitingTime="0.00" waitingCount="0" stopTime="0.00" timeLoss="11.72" rerouteNo="0" devices="tripinfo_car_14" vType="typeCar" speedFactor="1.00" vaporized=""/>
    <tripinfo id="car_19" depart="42.00" departLane="e2A_0" departPos="5.10" departSpeed="0.00" departDelay="31.00" arrival="82.00" arrivalLane="A2w_0" arrivalPos="189.60" arrivalSpeed="13.81" duration="40.00" routeLength="394.90" waitingTime="0.00" waitingCount="0" stopTime="0.00" timeLoss="11.44" rerouteNo="0" devices="tripinfo_car_19" vType="typeCar" speedFactor="1.00" vaporized=""/>
    <tripinfo id="car_17" depart="45.00" departLane="w2A_0" departPos="5.10" departSpeed="0.00" departDelay="35.00" arrival="86.00" arrivalLane="A2e_0" arrivalPos="189.60" arrivalSpeed="13.84" duration="41.00" routeLength="394.90" waitingTime="0.00" waitingCount="0" stopTime="0.00" timeLoss="11.73" rerouteNo="0" devices="tripinfo_car_17" vType="typeCar" speedFactor="1.00" vaporized=""/>
    <tripinfo id="car_23" depart="47.00" departLane="e2A_0" departPos="5.10" departSpeed="0.00" departDelay="34.00" arrival="88.00" arrivalLane="A2w_0" arrivalPos="189.60" arrivalSpeed="13.60" duration="41.00" routeLength="394.90" waitingTime="0.00" waitingCount="0" stopTime="0.00" timeLoss="12.23" rerouteNo="0" devices="tripinfo_car_23" vType="typeCar" speedFactor="1.00" vaporized=""/>
    <tripinfo id="car_20" depart="50.00" departLane="w2A_0" departPos="5.10" departSpeed="0.00" departDelay="38.00" arrival="90.00" arrivalLane="A2e_0" arrivalPos="189.60" arrivalSpeed="13.73" duration="40.00" routeLength="394.90" waitingTime="0.00" waitingCount="0" stopTime="0.00" timeLoss="11.36" rerouteNo="0" devices="tripinfo_car_20" vType="typeCar" speedFactor="1.00" vaporized=""/>
    <tripinfo id="car_25" depart="52.00" departLane="e2A_0" departPos="5.10" departSpeed="0.00" departDelay="38.00" arrival="94.00" arrivalLane="A2w_0" arrivalPos="189.60" arrivalSpeed="13.66" duration="42.00" routeLength="394.90" waitingTime="0.00" waitingCount="0" stopTime="0.00" timeLoss="12.61" rerouteNo="0" devices="tripinfo_car_25" vType="typeCar" speedFactor="1.00" vaporized=""/>
    <tripinfo id="car_22" depart="55.00" departLane="w2A_0" departPos="5.10" departSpeed="0.00" departDelay="42.00" arrival="95.00" arrivalLane="A2e_0" arrivalPos="189.60" arrivalSpeed="13.79" duration="40.00" routeLength="394.90" waitingTime="0.00" waitingCount="0" stopTime="0.00" timeLoss="11.07" rerouteNo="0" devices="tripinfo_car_22" vType="typeCar" speedFactor="1.00" vaporized=""/>
    <tripinfo id="car_28" depart="58.00" departLane="e2A_0" departPos="5.10" departSpeed="0.00" departDelay="42.00" arrival="99.00" arrivalLane="A2w_0" arrivalPos="189.60" arrivalSpeed="13.76" duration="41.00" routeLength="394.90" waitingTime="0.00" waitingCount="0" stopTime="0.00" timeLoss="11.61" rerouteNo="0" devices="tripinfo_car_28" vType="typeCar" speedFactor="1.00" vaporized=""/>
    <tripinfo id="car_24" depart="60.00" departLane="w2A_0" departPos="5.10" departSpeed="0.00" departDelay="46.00" arrival="101.00" arrivalLane="A2e_0" arrivalPos="189.60" arrivalSpeed="13.63" duration="41.00" routeLength="394.90" waitingTime="0.00" waitingCount="0" stopTime="0.00" timeLoss="12.24" rerouteNo="0" devices="tripinfo_car_24" vType="typeCar" speedFactor="1.00" vaporized=""/>
    <tripinfo id="car_71" depart="42.00" departLane="s2A_0" departPos="5.10" departSpeed="0.00" departDelay="0.00" arrival="114.00" arrivalLane="A2n_1" arrivalPos="189.60" arrivalSpeed="13.86" duration="72.00" routeLength="394.90" waitingTime="21.00" waitingCount="1" stopTime="0.00" timeLoss="43.44" rerouteNo="0" devices="tripinfo_car_71" vType="typeCar" speedFactor="1.00" vaporized=""/>
    <tripinfo id="car_55" depart="33.00" departLane="s2A_0" departPos="5.10" departSpeed="0.00" departDelay="0.00" arrival="115.00" arrivalLane="A2n_0" arrivalPos="189.60" arrivalSpeed="13.63" duration="82.00" routeLength="394.90" waitingTime="29.00" waitingCount="1" stopTime="0.00" timeLoss="53.41" rerouteNo="0" devices="tripinfo_car_55" vType="typeCar" speedFactor="1.00" vaporized=""/>
    <tripinfo id="car_78" depart="46.00" departLane="n2A_0" departPos="5.10" departSpeed="0.00" departDelay="0.00" arrival="116.00" arrivalLane="A2s_0" arrivalPos="189.60" arrivalSpeed="13.59" duration="70.00" routeLength="394.90" waitingTime="16.00" waitingCount="1" stopTime="0.00" timeLoss="41.12" rerouteNo="0" devices="tripinfo_car_78" vType="typeCar" speedFactor="1.00" vaporized=""/>
    <tripinfo id="car_91" depart="52.00" departLane="s2A_0" departPos="5.10" departSpeed="0.00" departDelay="0.00" arrival="117.00" arrivalLane="A2n_1" arrivalPos="189.60" arrivalSpeed="13.71" duration="65.00" routeLength="394.90" waitingTime="13.00" waitingCount="1" stopTime="0.00" timeLoss="36.38" rerouteNo="0" devices="tripinfo_car_91" vType="typeCar" speedFactor="1.00" vaporized=""/>
    <tripinfo id="car_81" depart="47.00" departLane="s2A_0" departPos="5.10" departSpeed="0.00" departDelay="0.00" arrival="118.00" arrivalLane="A2n_0" arrivalPos="189.60" arrivalSpeed="13.71" duration="71.00" routeLength="394.90" waitingTime="17.00" waitingCount="1" stopTime="0.00" timeLoss="41.73" rerouteNo="0" devices="tripinfo_car_81" vType="typeCar" speedFactor="1.00" vaporized=""/>
    <tripinfo id="car_128" depart="73.00" departLane="s2A_0" departPos="5.10" departSpeed="0.00" departDelay="0.00" arrival="119.00" arrivalLane="A2n_1" arrivalPos="189.60" arrivalSpeed="13.68" duration="46.00" routeLength="394.90" waitingTime="0.00" waitingCount="0" stopTime="0.00" timeLoss="17.09" rerouteNo="0" devices="tripinfo_car_128" vType="typeCar" speedFactor="1.00" vaporized=""/>
    <tripinfo id="car_153" depart="87.00" departLane="n2A_0" departPos="5.10" departSpeed="0.00" departDelay="0.00" arrival="128.00" arrivalLane="A2s_0" arrivalPos="189.60" arrivalSpeed="13.75" duration="41.00" routeLength="394.90" waitingTime="0.00" waitingCount="0" stopTime="0.00" timeLoss="12.50" rerouteNo="0" devices="tripinfo_car_153" vType="typeCar" speedFactor="1.00" vaporized=""/>
    <tripinfo id="car_179" depart="102.00" departLane="n2A_0" departPos="5.10" departSpeed="0.00" departDelay="0.00" arrival="142.00" arrivalLane="A2s_0" arrivalPos="189.60" arrivalSpeed="13.51" duration="40.00" routeLength="394.90" waitingTime="0.00" waitingCount="0" stopTime="0.00" timeLoss="10.64" rerouteNo="0" devices="tripinfo_car_179" vType="typeCar" speedFactor="1.00" vaporized=""/>
    <tripinfo id="car_30" depart="63.00" departLane="e2A_0" departPos="5.10" departSpeed="0.00" departDelay="46.00" arrival="160.00" arrivalLane="A2w_0" arrivalPos="189.60" arrivalSpeed="13.81" duration="97.00" routeLength="394.90" waitingTime="44.00" waitingCount="1" stopTime="0.00" timeLoss="68.36" rerouteNo="0" devices="tripinfo_car_30" vType="typeCar" speedFactor="1.00" vaporized=""/>
    <tripinfo id="car_27" depart="71.00" departLane="w2A_0" departPos="5.10" departSpeed="0.00" departDelay="55.00" arrival="160.00" arrivalLane="A2e_1" arrivalPos="189.60" arrivalSpeed="13.68" duration="89.00" routeLength="394.90" waitingTime="37.00" waitingCount="1" stopTime="0.00" timeLoss="60.41" rerouteNo="0" devices="tripinfo_car_27" vType="typeCar" speedFactor="1.00" vaporized=""/>
    <tripinfo id="car_32" depart="69.00" departLane="e2A_0" departPos="5.10" departSpeed="0.00" departDelay="51.00" arrival="161.00" arrivalLane="A2w_1" arrivalPos="189.60" arrivalSpeed="13.50" duration="92.00" routeLength="394.90" waitingTime="39.00" waitingCount="1" stopTime="0.00" timeLoss="63.20" rerouteNo="0" devices="tripinfo_car_32" vType="typeCar" speedFactor="1.00" vaporized=""/>
    <tripinfo id="car_26" depart="65.00" departLane="w2A_0" departPos="5.10" departSpeed="0.00" departDelay="50.00" arrival="161.00" arrivalLane="A2e_0" arrivalPos="189.60" arrivalSpeed="13.56" duration="96.00" routeLength="394.90" waitingTime="43.00" waitingCount="2" stopTime="0.00" timeLoss="67.16" rerouteNo="0" devices="tripinfo_car_26" vType="typeCar" speedFactor="1.00" vaporized=""/>
    <tripinfo id="car_36" depart="80.00" departLane="e2A_0" departPos="5.10" departSpeed="0.00" departDelay="60.00" arrival="163.00" arrivalLane="A2w_1" arrivalPos="189.60" arrivalSpeed="13.86" duration="83.00" routeLength="394.90" waitingTime="29.00" waitingCount="1" stopTime="0.00" timeLoss="54.31" rerouteNo="0" devices="tripinfo_car_36" vType="typeCar" speedFactor="1.00" vaporized=""/>
    <tripinfo id="car_34" depart="75.00" departLane="e2A_0" departPos="5.10" departSpeed="0.00" departDelay="56.00" arrival="163.00" arrivalLane="A2w_0" arrivalPos="189.60" arrivalSpeed="13.49" duration="88.00" routeLength="394.90" waitingTime="33.00" waitingCount="1" stopTime="0.00" timeLoss="59.49" rerouteNo="0" devices="tripinfo_car_34" vType="typeCar" speedFactor="1.00" vaporized=""/>
    <tripinfo id="car_31" depart="81.00" departLane="w2A_0" departPos="5.10" departSpeed="0.00" departDelay="63.00" arrival="163.00" arrivalLane="A2e_1" arrivalPos="189.60" arrivalSpeed="13.54" duration="82.00" routeLength="394.90" waitingTime="27.00" waitingCount="1" stopTime="0.00" timeLoss="52.63" rerouteNo="0" devices="tripinfo_car_31" vType="typeCar" speedFactor="1.00" vaporized=""/>
    <tripinfo id="car_29" depart="76.00" departLane="w2A_0" departPos="5.10" departSpeed="0.00" departDelay="59.00" arrival="163.00" arrivalLane="A2e_0" arrivalPos="189.60" arrivalSpeed="13.72" duration="87.00" routeLength="394.90" waitingTime="34.00" waitingCount="1" stopTime="0.00" timeLoss="57.78" rerouteNo="0" devices="tripinfo_car_29" vType="typeCar" speedFactor="1.00" vaporized=""/>
    <tripinfo id="car_35" depart="91.00" departLane="w2A_0" departPos="5.10" departSpeed="0.00" departDelay="71.00" arrival="164.00" arrivalLane="A2e_1" arrivalPos="189.60" arrivalSpeed="13.76" duration="73.00" routeLength="394.90" waitingTime="18.00" waitingCount="1" stopTime="0.00" timeLoss="44.47" rerouteNo="0" devices="tripinfo_car_35" vType="typeCar" speedFactor="1.00" vaporized=""/>
    <tripinfo id="car_33" depart="86.00" departLane="w2A_0" departPos="5.10" departSpeed="0.00" departDelay="67.00" arrival="164.00" arrivalLane="A2e_0" arrivalPos="189.60" arrivalSpeed="13.85" duration="78.00" routeLength="394.90" waitingTime="24.00" waitingCount="1" stopTime="0.00" timeLoss="49.43" rerouteNo="0" devices="tripinfo_car_33" vType="typeCar" speedFactor="1.00" vaporized=""/>
    <tripinfo id="car_39" depart="90.00" departLane="e2A_0" departPos="5.10" departSpeed="0.00" departDelay="68.00" arrival="165.00" arrivalLane="A2w_1" arrivalPos="189.60" arrivalSpeed="13.65" duration="75.00" routeLength="394.90" waitingTime="20.00" waitingCount="1" stopTime="0.00" timeLoss="46.24" rerouteNo="0" devices="tripinfo_car_39" vType="typeCar" speedFactor="1.00" vaporized=""/>
    <tripinfo id="car_37" depart="85.00" departLane="e2A_0" departPos="5.10" departSpeed="0.00" departDelay="64.00" arrival="165.00" arrivalLane="A2w_0" arrivalPos="189.60" arrivalSpeed="13.49" duration="80.00" routeLength="394.90" waitingTime="26.00" waitingCount="1" stopTime="0.00" timeLoss="51.45" rerouteNo="0" devices="tripinfo_car_37" vType="typeCar" speedFactor="1.00" vaporized=""/>
    <tripinfo id="car_38" depart="96.00" departLane="w2A_0" departPos="5.10" departSpeed="0.00" departDelay="74.00" arrival="166.00" arrivalLane="A2e_0" arrivalPos="189.60" arrivalSpeed="13.78" duration="70.00" routeLength="394.90" waitingTime="16.00" waitingCount="1" stopTime="0.00" timeLoss="41.07" rerouteNo="0" devices="tripinfo_car_38" vType="typeCar" speedFactor="1.00" vaporized=""/>
    <tripinfo id="car_43" depart="100.00" departLane="e2A_0" departPos="5.10" departSpeed="0.00" departDelay="76.00" arrival="167.00" arrivalLane="A2w_1" arrivalPos="189.60" arrivalSpeed="13.61" duration="67.00" routeLength="394.90" waitingTime="12.00" waitingCount="1" stopTime="0.00" timeLoss="37.92" rerouteNo="0" devices="tripinfo_car_43" vType="typeCar" speedFactor="1.00" vaporized=""/>
    <tripinfo id="car_41" depart="95.00" departLane="e2A_0" departPos="5.10" departSpeed="0.00" departDelay="72.00" arrival="167.00" arrivalLane="A2w_0" arrivalPos="189.60" arrivalSpeed="13.53" duration="72.00" routeLength="394.90" waitingTime="17.00" waitingCount="1" stopTime="0.00" timeLoss="43.13" rerouteNo="0" devices="tripinfo_car_41" vType="typeCar" speedFactor="1.00" vaporized=""/>
    <tripinfo id="car_40" depart="101.00" departLane="w2A_0" departPos="5.10" departSpeed="0.00" departDelay="78.00" arrival="167.00" arrivalLane="A2e_1" arrivalPos="189.60" arrivalSpeed="13.74" duration="66.00" routeLength="394.90" waitingTime="11.00" waitingCount="1" stopTime="0.00" timeLoss="36.63" rerouteNo="0" devices="tripinfo_car_40" vType="typeCar" speedFactor="1.00" vaporized=""/>
    <tripinfo id="car_44" depart="111.00" departLane="w2A_0" departPos="5.10" departSpeed="0.00" departDelay="86.00" arrival="168.00" arrivalLane="A2e_1" arrivalPos="189.60" arrivalSpeed="13.64" duration="57.00" routeLength="394.90" waitingTime="1.00" waitingCount="1" stopTime="0.00" timeLoss="28.42" rerouteNo="0" devices="tripinfo_car_44" vType="typeCar" speedFactor="1.00" vaporized=""/>
    <tripinfo id="car_42" depart="106.00" departLane="w2A_0" departPos="5.10" departSpeed="0.00" departDelay="82.00" arrival="168.00" arrivalLane="A2e_0" arrivalPos="189.60" arrivalSpeed="13.86" duration="62.00" routeLength="394.90" waitingTime="7.00" waitingCount="1" stopTime="0.00" timeLoss="33.00" rerouteNo="0" devices="tripinfo_car_42" vType="typeCar" speedFactor="1.00" vaporized=""/>
    <tripinfo id="car_50" depart="110.00" departLane="e2A_0" departPos="5.10" departSpeed="0.00" departDelay="81.00" arrival="169.00" arrivalLane="A2w_1" arrivalPos="189.60" arrivalSpeed="13.62" duration="59.00" routeLength="394.90" waitingTime="3.00" waitingCount="1" stopTime="0.00" timeLoss="29.74" rerouteNo="0" devices="tripinfo_car_50" vType="typeCar" speedFactor="1.00" vaporized=""/>
    <tripinfo id="car_45" depart="105.00" departLane="e2A_0" departPos="5.10" departSpeed="0.00" departDelay="80.00" arrival="169.00" arrivalLane="A2w_0" arrivalPos="189.60" arrivalSpeed="13.56" duration="64.00" routeLength="394.90" waitingTime="9.00" waitingCount="1" stopTime="0.00" timeLoss="35.34" rerouteNo="0" devices="tripinfo_car_45" vType="typeCar" speedFactor="1.00" vaporized=""/>
    <tripinfo id="car_54" depart="120.00" departLane="e2A_0" departPos="5.10" departSpeed="0.00" departDelay="88.00" arrival="170.00" arrivalLane="A2w_1" arrivalPos="189.60" arrivalSpeed="13.66" duration="50.00" routeLength="394.90" waitingTime="0.00" waitingCount="0" stopTime="0.00" timeLoss="21.43" rerouteNo="0" devices="tripinfo_car_54" vType="typeCar" speedFactor="1.00" vaporized=""/>
    <tripinfo id="car_47" depart="122.00" departLane="w2A_0" departPos="5.10" departSpeed="0.00" departDelay="95.00" arrival="170.00" arrivalLane="A2e_1" arrivalPos="189.60" arrivalSpeed="13.64" duration="48.00" routeLength="394.90" waitingTime="0.00" waitingCount="0" stopTime="0.00" timeLoss="19.17" rerouteNo="0" devices="tripinfo_car_47" vType="typeCar" speedFactor="1.00" vaporized=""/>
    <tripinfo id="car_46" depart="117.00" departLane="w2A_0" departPos="5.10" departSpeed="0.00" departDelay="91.00" arrival="170.00" arrivalLane="A2e_0" arrivalPos="189.60" arrivalSpeed="13.79" duration="53.00" routeLength="394.90" waitingTime="0.00" waitingCount="0" stopTime="0.00" timeLoss="24.43" rerouteNo="0" devices="tripinfo_car_46" vType="typeCar" speedFactor="1.00" vaporized=""/>
    <tripinfo id="car_52" depart="115.00" departLane="e2A_0" departPos="5.10" departSpeed="0.00" departDelay="84.00" arrival="171.00" arrivalLane="A2w_0" arrivalPos="189.60" arrivalSpeed="13.61" duration="56.00" routeLength="394.90" waitingTime="1.00" waitingCount="1" stopTime="0.00" timeLoss="27.13" rerouteNo="0" devices="tripinfo_car_52" vType="typeCar" speedFactor="1.00" vaporized=""/>
    <tripinfo id="car_58" depart="130.00" departLane="e2A_0" departPos="5.10" departSpeed="0.00" departDelay="96.00" arrival="172.00" arrivalLane="A2w_1" arrivalPos="189.60" arrivalSpeed="13.71" duration="42.00" routeLength="394.90" waitingTime="0.00" waitingCount="0" stopTime="0.00" timeLoss="13.08" rerouteNo="0" devices="tripinfo_car_58" vType="typeCar" speedFactor="1.00" vaporized=""/>
    <tripinfo id="car_48" depart="127.00" departLane="w2A_0" departPos="5.10" departSpeed="0.00" departDelay="99.00" arrival="172.00" arrivalLane="A2e_1" arrivalPos="189.60" arrivalSpeed="13.54" duration="45.00" routeLength="394.90" waitingTime="0.00" waitingCount="0" stopTime="0.00" timeLoss="16.01" rerouteNo="0" devices="tripinfo_car_48" vType="typeCar" speedFactor="1.00" vaporized=""/>
    <tripinfo id="car_49" depart="132.00" departLane="w2A_0" departPos="5.10" departSpeed="0.00" departDelay="103.00" arrival="172.00" arrivalLane="A2e_0" arrivalPos="189.60" arrivalSpeed="13.73" duration="40.00" routeLength="394.90" waitingTime="0.00" waitingCount="0" stopTime="0.00" timeLoss="11.26" rerouteNo="0" devices="tripinfo_car_49" vType="typeCar" speedFactor="1.00" vaporized=""/>
    <tripinfo id="car_56" depart="125.00" departLane="e2A_0" departPos="5.10" departSpeed="0.00" departDelay="92.00" arrival="173.00" arrivalLane="A2w_0" arrivalPos="189.60" arrivalSpeed="13.62" duration="48.00" routeLength="394.90" waitingTime="0.00" waitingCount="0" stopTime="0.00" timeLoss="18.74" rerouteNo="0" devices="tripinfo_car_56" vType="typeCar" speedFactor="1.00" vaporized=""/>
    <tripinfo id="car_60" depart="135.00" departLane="e2A_0" departPos="5.10" departSpeed="0.00" departDelay="100.00" arrival="175.00" arrivalLane="A2w_0" arrivalPos="189.60" arrivalSpeed="13.69" duration="40.00" routeLength="394.90" waitingTime="0.00" waitingCount="0" stopTime="0.00" timeLoss="10.68" rerouteNo="0" devices="tripinfo_car_60" vType="typeCar" speedFactor="1.00" vaporized=""/>
    <tripinfo id="car_51" depart="137.00" departLane="w2A_0" departPos="5.10" departSpeed="0.00" departDelay="106.00" arrival="176.00" arrivalLane="A2e_0" arrivalPos="189.60" arrivalSpeed="13.80" duration="39.00" routeLength="394.90" waitingTime="0.00" waitingCount="0" stopTime="0.00" timeLoss="10.53" rerouteNo="0" devices="tripinfo_car_51" vType="typeCar" speedFactor="1.00" vaporized=""/>
    <tripinfo id="car_62" depart="140.00" departLane="e2A_0" departPos="5.10" departSpeed="0.00" departDelay="104.00" arrival="180.00" arrivalLane="A2w_0" arrivalPos="189.60" arrivalSpeed="13.55" duration="40.00" routeLength="394.90" waitingTime="0.00" waitingCount="0" stopTime="0.00" timeLoss="10.65" rerouteNo="0" devices="tripinfo_car_62" vType="typeCar" speedFactor="1.00" vaporized=""/>
    <tripinfo id="car_53" depart="142.00" departLane="w2A_0" departPos="5.10" departSpeed="0.00" departDelay="110.00" arrival="182.00" arrivalLane="A2e_0" arrivalPos="189.60" arrivalSpeed="13.52" duration="40.00" routeLength="394.90" waitingTime="0.00" waitingCount="0" stopTime="0.00" timeLoss="11.52" rerouteNo="0" devices="tripinfo_car_53" vType="typeCar" speedFactor="1.00" vaporized=""/>
    <tripinfo id="car_63" depart="145.00" departLane="e2A_0" departPos="5.10" departSpeed="0.00" departDelay="108.00" arrival="185.00" arrivalLane="A2w_0" arrivalPos="189.60" arrivalSpeed="13.73" duration="40.00" routeLength="394.90" waitingTime="0.00" waitingCount="0" stopTime="0.00" timeLoss="11.46" rerouteNo="0" devices="tripinfo_car_63" vType="typeCar" speedFactor="1.00" vaporized=""/>
    <tripinfo id="car_57" depart="147.00" departLane="w2A_0" departPos="5.10" departSpeed="0.00" departDelay="113.00" arrival="187.00" arrivalLane="A2e_0" arrivalPos="189.60" arrivalSpeed="13.70" duration="40.00" routeLength="394.90" waitingTime="0.00" waitingCount="0" stopTime="0.00" timeLoss="10.78" rerouteNo="0" devices="tripinfo_car_57" vType="typeCar" speedFactor="1.00" vaporized=""/>
    <tripinfo id="car_65" depart="150.00" departLane="e2A_0" departPos="5.10" departSpeed="0.00" departDelay="112.00" arrival="191.00" arrivalLane="A2w_0" arrivalPos="189.60" arrivalSpeed="13.87" duration="41.00" routeLength="394.90" waitingTime="0.00" waitingCount="0" stopTime="0.00" timeLoss="12.33" rerouteNo="0" devices="tripinfo_car_65" vType="typeCar" speedFactor="1.00" vaporized=""/>
    <tripinfo id="car_59" depart="152.00" departLane="w2A_0" departPos="5.10" departSpeed="0.00" departDelay="117.00" arrival="192.00" arrivalLane="A2e_0" arrivalPos="189.60" arrivalSpeed="13.87" duration="40.00" routeLength="394.90" waitingTime="0.00" waitingCount="0" stopTime="0.00" timeLoss="10.88" rerouteNo="0" devices="tripinfo_car_59" vType="typeCar" speedFactor="1.00" vaporized=""/>
    <tripinfo id="car_224" depart="129.00" departLane="n2A_0" departPos="5.10" departSpeed="0.00" departDelay="0.00" arrival="205.00" arrivalLane="A2s_0" arrivalPos="189.60" arrivalSpeed="13.55" duration="76.00" routeLength="394.90" waitingTime="24.00" waitingCount="1" stopTime="0.00" timeLoss="47.21" rerouteNo="0" devices="tripinfo_car_224" vType="typeCar" speedFactor="1.00" vaporized=""/>
    <tripinfo id="car_216" depart="123.00" departLane="n2A_0" departPos="5.10" departSpeed="0.00" departDelay="0.00" arrival="207.00" arrivalLane="A2s_0" arrivalPos="189.60" arrivalSpeed="13.67" duration="84.00" routeLength="394.90" waitingTime="30.00" waitingCount="1" stopTime="0.00" timeLoss="55.15" rerouteNo="0" devices="tripinfo_car_216" vType="typeCar" speedFactor="1.00" vaporized=""/>
    <tripinfo id="car_255" depart="146.00" departLane="n2A_0" departPos="5.10" departSpeed="0.00" departDelay="0.00" arrival="208.00" arrivalLane="A2s_1" arrivalPos="189.60" arrivalSpeed="13.84" duration="62.00" routeLength="394.90" waitingTime="8.00" waitingCount="1" stopTime="0.00" timeLoss="33.24" rerouteNo="0" devices="tripinfo_car_255" vType="typeCar" speedFactor="1.00" vaporized=""/>