<?xml version="1.0" encoding="UTF-8"?>

<!-- generated on Fri Sep  7 08:44:03 2018 by Eclipse SUMO GUI Version v0_32_0+2411-189ca3ff4b
<configuration xmlns:xsi="http://www.w3.org/2001/XMLSchema-instance" xsi:noNamespaceSchemaLocation="http://sumo.dlr.de/xsd/sumoConfiguration.xsd">

    <input>
        <net-file value="data/cross.net.xml"/>
        <route-files value="data/cross.rou.xml"/>
        <additional-files value="data/cross.det.xml"/>
    </input>

    <output>
        <tripinfo-output value="tripinfo.xml"/>
    </output>

    <time>
        <begin value="0"/>
    </time>

    <report>
        <verbose value="true"/>
        <no-step-log value="true"/>
    </report>

    <traci_server>
        <remote-port value="54070"/>
    </traci_server>

</configuration>
-->

<tripinfos xmlns:xsi="http://www.w3.org/2001/XMLSchema-instance" xsi:noNamespaceSchemaLocation="http://sumo.dlr.de/xsd/tripinfo_file.xsd">
    <tripinfo id="car_0" depart="0.00" departLane="n2A_0" departPos="5.10" departSpeed="0.00" departDelay="0.00" arrival="40.00" arrivalLane="A2s_0" arrivalPos="189.60" arrivalSpeed="13.80" duration="40.00" routeLength="394.90" waitingTime="0.00" waitingCount="0" stopTime="0.00" timeLoss="11.09" rerouteNo="0" devices="tripinfo_car_0" vType="typeCar" speedFactor="1.00" vaporized=""/>
    <tripinfo id="car_23" depart="14.00" departLane="n2A_0" departPos="5.10" departSpeed="0.00" departDelay="0.00" arrival="55.00" arrivalLane="A2s_0" arrivalPos="189.60" arrivalSpeed="13.59" duration="41.00" routeLength="394.90" waitingTime="0.00" waitingCount="0" stopTime="0.00" timeLoss="12.23" rerouteNo="0" devices="tripinfo_car_23" vType="typeCar" speedFactor="1.00" vaporized=""/>
    <tripinfo id="car_3" depart="5.00" departLane="e2A_0" departPos="5.10" departSpeed="0.00" departDelay="4.00" arrival="71.00" arrivalLane="A2w_1" arrivalPos="189.60" arrivalSpeed="13.59" duration="66.00" routeLength="394.90" waitingTime="12.00" waitingCount="1" stopTime="0.00" timeLoss="37.44" rerouteNo="0" devices="tripinfo_car_3" vType="typeCar" speedFactor="1.00" vaporized=""/>
    <tripinfo id="car_4" depart="5.00" departLane="w2A_0" departPos="5.10" departSpeed="0.00" departDelay="3.00" arrival="71.00" arrivalLane="A2e_1" arrivalPos="189.60" arrivalSpeed="13.67" duration="66.00" routeLength="394.90" waitingTime="12.00" waitingCount="1" stopTime="0.00" timeLoss="36.89" rerouteNo="0" devices="tripinfo_car_4" vType="typeCar" speedFactor="1.00" vaporized=""/>
    <tripinfo id="car_1" depart="0.00" departLane="w2A_0" departPos="5.10" departSpeed="0.00" departDelay="0.00" arrival="71.00" arrivalLane="A2e_0" arrivalPos="189.60" arrivalSpeed="13.71" duration="71.00" routeLength="394.90" waitingTime="18.00" waitingCount="1" stopTime="0.00" timeLoss="42.34" rerouteNo="0" devices="tripinfo_car_1" vType="typeCar" speedFactor="1.00" vaporized=""/>
    <tripinfo id="car_2" depart="0.00" departLane="e2A_0" departPos="5.10" departSpeed="0.00" departDelay="0.00" arrival="72.00" arrivalLane="A2w_0" arrivalPos="189.60" arrivalSpeed="13.72" duration="72.00" routeLength="394.90" waitingTime="19.00" waitingCount="1" stopTime="0.00" timeLoss="42.61" rerouteNo="0" devices="tripinfo_car_2" vType="typeCar" speedFactor="1.00" vaporized=""/>
    <tripinfo id="car_7" depart="16.00" departLane="e2A_0" departPos="5.10" departSpeed="0.00" departDelay="13.00" arrival="73.00" arrivalLane="A2w_1" arrivalPos="189.60" arrivalSpeed="13.87" duration="57.00" routeLength="394.90" waitingTime="2.00" waitingCount="1" stopTime="0.00" timeLoss="28.11" rerouteNo="0" devices="tripinfo_car_7" vType="typeCar" speedFactor="1.00" vaporized=""/>
    <tripinfo id="car_5" depart="10.00" departLane="e2A_0" departPos="5.10" departSpeed="0.00" departDelay="8.00" arrival="73.00" arrivalLane="A2w_0" arrivalPos="189.60" arrivalSpeed="13.86" duration="63.00" routeLength="394.90" waitingTime="8.00" waitingCount="1" stopTime="0.00" timeLoss="34.49" rerouteNo="0" devices="tripinfo_car_5" vType="typeCar" speedFactor="1.00" vaporized=""/>
    <tripinfo id="car_8" depart="16.00" departLane="w2A_0" departPos="5.10" departSpeed="0.00" departDelay="12.00" arrival="73.00" arrivalLane="A2e_1" arrivalPos="189.60" arrivalSpeed="13.80" duration="57.00" routeLength="394.90" waitingTime="2.00" waitingCount="1" stopTime="0.00" timeLoss="27.61" rerouteNo="0" devices="tripinfo_car_8" vType="typeCar" speedFactor="1.00" vaporized=""/>
    <tripinfo id="car_6" depart="11.00" departLane="w2A_0" departPos="5.10" departSpeed="0.00" departDelay="8.00" arrival="73.00" arrivalLane="A2e_0" arrivalPos="189.60" arrivalSpeed="13.78" duration="62.00" routeLength="394.90" waitingTime="10.00" waitingCount="1" stopTime="0.00" timeLoss="33.04" rerouteNo="0" devices="tripinfo_car_6" vType="typeCar" speedFactor="1.00" vaporized=""/>
    <tripinfo id="car_12" depart="26.00" departLane="e2A_0" departPos="5.10" departSpeed="0.00" departDelay="20.00" arrival="75.00" arrivalLane="A2w_1" arrivalPos="189.60" arrivalSpeed="13.76" duration="49.00" routeLength="394.90" waitingTime="0.00" waitingCount="0" stopTime="0.00" timeLoss="19.72" rerouteNo="0" devices="tripinfo_car_12" vType="typeCar" speedFactor="1.00" vaporized=""/>
    <tripinfo id="car_10" depart="21.00" departLane="e2A_0" departPos="5.10" departSpeed="0.00" departDelay="16.00" arrival="75.00" arrivalLane="A2w_0" arrivalPos="189.60" arrivalSpeed="13.66" duration="54.00" routeLength="394.90" waitingTime="0.00" waitingCount="0" stopTime="0.00" timeLoss="25.23" rerouteNo="0" devices="tripinfo_car_10" vType="typeCar" speedFactor="1.00" vaporized=""/>
    <tripinfo id="car_11" depart="26.00" departLane="w2A_0" departPos="5.10" departSpeed="0.00" departDelay="20.00" arrival="75.00" arrivalLane="A2e_1" arrivalPos="189.60" arrivalSpeed="13.67" duration="49.00" routeLength="394.90" waitingTime="0.00" waitingCount="0" stopTime="0.00" timeLoss="19.70" rerouteNo="0" devices="tripinfo_car_11" vType="typeCar" speedFactor="1.00" vaporized=""/>
    <tripinfo id="car_9" depart="21.00" departLane="w2A_0" departPos="5.10" departSpeed="0.00" departDelay="16.00" arrival="75.00" arrivalLane="A2e_0" arrivalPos="189.60" arrivalSpeed="13.51" duration="54.00" routeLength="394.90" waitingTime="1.00" waitingCount="1" stopTime="0.00" timeLoss="24.97" rerouteNo="0" devices="tripinfo_car_9" vType="typeCar" speedFactor="1.00" vaporized=""/>
    <tripinfo id="car_14" depart="31.00" departLane="w2A_0" departPos="5.10" departSpeed="0.00" departDelay="23.00" arrival="76.00" arrivalLane="A2e_1" arrivalPos="189.60" arrivalSpeed="13.86" duration="45.00" routeLength="394.90" waitingTime="0.00" waitingCount="0" stopTime="0.00" timeLoss="16.43" rerouteNo="0" devices="tripinfo_car_14" vType="typeCar" speedFactor="1.00" vaporized=""/>
    <tripinfo id="car_13" depart="32.00" departLane="e2A_0" departPos="5.10" departSpeed="0.00" departDelay="25.00" arrival="77.00" arrivalLane="A2w_0" arrivalPos="189.60" arrivalSpeed="13.78" duration="45.00" routeLength="394.90" waitingTime="0.00" waitingCount="0" stopTime="0.00" timeLoss="15.94" rerouteNo="0" devices="tripinfo_car_13" vType="typeCar" speedFactor="1.00" vaporized=""/>
    <tripinfo id="car_16" depart="36.00" departLane="w2A_0" departPos="5.10" departSpeed="0.00" departDelay="27.00" arrival="77.00" arrivalLane="A2e_0" arrivalPos="189.60" arrivalSpeed="13.83" duration="41.00" routeLength="394.90" waitingTime="0.00" waitingCount="0" stopTime="0.00" timeLoss="11.73" rerouteNo="0" devices="tripinfo_car_16" vType="typeCar" speedFactor="1.00" vaporized=""/>
    <tripinfo id="car_15" depart="37.00" departLane="e2A_0" departPos="5.10" departSpeed="0.00" departDelay="29.00" arrival="78.00" arrivalLane="A2w_0" arrivalPos="189.60" arrivalSpeed="13.74" duration="41.00" routeLength="394.90" waitingTime="0.00" waitingCount="0" stopTime="0.00" timeLoss="12.57" rerouteNo="0" devices="tripinfo_car_15" vType="typeCar" speedFactor="1.00" vaporized=""/>
    <tripinfo id="car_18" depart="41.00" departLane="w2A_0" departPos="5.10" departSpeed="0.00" departDelay="31.00" arrival="81.00" arrivalLane="A2e_0" arrivalPos="189.60" arrivalSpeed="13.50" duration="40.00" routeLength="394.90" waitingTime="0.00" waitingCount="0" stopTime="0.00" timeLoss="11.50" rerouteNo="0" devices="tripinfo_car_18" vType="typeCar" speedFactor="1.00" vaporized=""/>
    <tripinfo id="car_17" depart="42.00" departLane="e2A_0" departPos="5.10" departSpeed="0.00" departDelay="33.00" arrival="84.00" arrivalLane="A2w_0" arrivalPos="189.60" arrivalSpeed="13.81" duration="42.00" routeLength="394.90" waitingTime="0.00" waitingCount="0" stopTime="0.00" timeLoss="12.73" rerouteNo="0" devices="tripinfo_car_17" vType="typeCar" speedFactor="1.00" vaporized=""/>
    <tripinfo id="car_20" depart="46.00" departLane="w2A_0" departPos="5.10" departSpeed="0.00" departDelay="35.00" arrival="85.00" arrivalLane="A2e_0" arrivalPos="189.60" arrivalSpeed="13.83" duration="39.00" routeLength="394.90" waitingTime="0.00" waitingCount="0" stopTime="0.00" timeLoss="10.33" rerouteNo="0" devices="tripinfo_car_20" vType="typeCar" speedFactor="1.00" vaporized=""/>
    <tripinfo id="car_19" depart="47.00" departLane="e2A_0" departPos="5.10" departSpeed="0.00" departDelay="37.00" arrival="87.00" arrivalLane="A2w_0" arrivalPos="189.60" arrivalSpeed="13.67" duration="40.00" routeLength="394.90" waitingTime="0.00" waitingCount="0" stopTime="0.00" timeLoss="11.33" rerouteNo="0" devices="tripinfo_car_19" vType="typeCar" speedFactor="1.00" vaporized=""/>
    <tripinfo id="car_24" depart="51.00" departLane="w2A_0" departPos="5.10" departSpeed="0.00" departDelay="37.00" arrival="91.00" arrivalLane="A2e_0" arrivalPos="189.60" arrivalSpeed="13.54" duration="40.00" routeLength="394.90" waitingTime="0.00" waitingCount="0" stopTime="0.00" timeLoss="10.90" rerouteNo="0" devices="tripinfo_car_24" vType="typeCar" speedFactor="1.00" vaporized=""/>
    <tripinfo id="car_21" depart="52.00" departLane="e2A_0" departPos="5.10" departSpeed="0.00" departDelay="41.00" arrival="92.00" arrivalLane="A2w_0" arrivalPos="189.60" arrivalSpeed="13.85" duration="40.00" routeLength="394.90" waitingTime="0.00" waitingCount="0" stopTime="0.00" timeLoss="11.11" rerouteNo="0" devices="tripinfo_car_21" vType="typeCar" speedFactor="1.00" vaporized=""/>
    <tripinfo id="car_26" depart="56.00" departLane="w2A_0" departPos="5.10" departSpeed="0.00" departDelay="41.00" arrival="96.00" arrivalLane="A2e_0" arrivalPos="189.60" arrivalSpeed="13.87" duration="40.00" routeLength="394.90" waitingTime="0.00" waitingCount="0" stopTime="0.00" timeLoss="11.49" rerouteNo="0" devices="tripinfo_car_26" vType="typeCar" speedFactor="1.00" vaporized=""/>
    <tripinfo id="car_22" depart="57.00" departLane="e2A_0" departPos="5.10" departSpeed="0.00" departDelay="44.00" arrival="97.00" arrivalLane="A2w_0" arrivalPos="189.60" arrivalSpeed="13.75" duration="40.00" routeLength="394.90" waitingTime="0.00" waitingCount="0" stopTime="0.00" timeLoss="10.63" rerouteNo="0" devices="tripinfo_car_22" vType="typeCar" speedFactor="1.00" vaporized=""/>
    <tripinfo id="car_28" depart="61.00" departLane="w2A_0" departPos="5.10" departSpeed="0.00" departDelay="45.00" arrival="102.00" arrivalLane="A2e_0" arrivalPos="189.60" arrivalSpeed="13.54" duration="41.00" routeLength="394.90" waitingTime="0.00" waitingCount="0" stopTime="0.00" timeLoss="11.97" rerouteNo="0" devices="tripinfo_car_28" vType="typeCar" speedFactor="1.00" vaporized=""/>
    <tripinfo id="car_67" depart="38.00" departLane="n2A_0" departPos="5.10" departSpeed="0.00" departDelay="0.00" arrival="116.00" arrivalLane="A2s_1" arrivalPos="189.60" arrivalSpeed="13.68" duration="78.00" routeLength="394.90" waitingTime="26.00" waitingCount="1" stopTime="0.00" timeLoss="48.84" rerouteNo="0" devices="tripinfo_car_67" vType="typeCar" speedFactor="1.00" vaporized=""/>
    <tripinfo id="car_40" depart="22.00" departLane="s2A_0" departPos="5.10" departSpeed="0.00" departDelay="0.00" arrival="116.00" arrivalLane="A2n_0" arrivalPos="189.60" arrivalSpeed="13.89" duration="94.00" routeLength="394.90" waitingTime="41.00" waitingCount="1" stopTime="0.00" timeLoss="64.94" rerouteNo="0" devices="tripinfo_car_40" vType="typeCar" speedFactor="1.00" vaporized=""/>
    <tripinfo id="car_77" depart="43.00" departLane="s2A_0" departPos="5.10" departSpeed="0.00" departDelay="0.00" arrival="116.00" arrivalLane="A2n_1" arrivalPos="189.60" arrivalSpeed="13.53" duration="73.00" routeLength="394.90" waitingTime="19.00" waitingCount="1" stopTime="0.00" timeLoss="43.67" rerouteNo="0" devices="tripinfo_car_77" vType="typeCar" speedFactor="1.00" vaporized=""/>
    <tripinfo id="car_32" depart="19.00" departLane="n2A_0" departPos="5.10" departSpeed="0.00" departDelay="1.00" arrival="116.00" arrivalLane="A2s_0" arrivalPos="189.60" arrivalSpeed="13.59" duration="97.00" routeLength="394.90" waitingTime="43.00" waitingCount="1" stopTime="0.00" timeLoss="68.02" rerouteNo="0" devices="tripinfo_car_32" vType="typeCar" speedFactor="1.00" vaporized=""/>
    <tripinfo id="car_110" depart="60.00" departLane="n2A_0" departPos="5.10" departSpeed="0.00" departDelay="0.00" arrival="118.00" arrivalLane="A2s_1" arrivalPos="189.60" arrivalSpeed="13.58" duration="58.00" routeLength="394.90" waitingTime="4.00" waitingCount="1" stopTime="0.00" timeLoss="28.86" rerouteNo="0" devices="tripinfo_car_110" vType="typeCar" speedFactor="1.00" vaporized=""/>
    <tripinfo id="car_85" depart="48.00" departLane="s2A_0" departPos="5.10" departSpeed="0.00" departDelay="1.00" arrival="118.00" arrivalLane="A2n_0" arrivalPos="189.60" arrivalSpeed="13.85" duration="70.00" routeLength="394.90" waitingTime="17.00" waitingCount="1" stopTime="0.00" timeLoss="40.58" rerouteNo="0" devices="tripinfo_car_85" vType="typeCar" speedFactor="1.00" vaporized=""/>
    <tripinfo id="car_93" depart="51.00" departLane="n2A_0" departPos="5.10" departSpeed="0.00" departDelay="0.00" arrival="119.00" arrivalLane="A2s_0" arrivalPos="189.60" arrivalSpeed="13.72" duration="68.00" routeLength="394.90" waitingTime="12.00" waitingCount="1" stopTime="0.00" timeLoss="38.81" rerouteNo="0" devices="tripinfo_car_93" vType="typeCar" speedFactor="1.00" vaporized=""/>
    <tripinfo id="car_132" depart="72.00" departLane="n2A_0" departPos="5.10" departSpeed="0.00" departDelay="0.00" arrival="120.00" arrivalLane="A2s_1" arrivalPos="189.60" arrivalSpeed="13.82" duration="48.00" routeLength="394.90" waitingTime="0.00" waitingCount="0" stopTime="0.00" timeLoss="18.75" rerouteNo="0" devices="tripinfo_car_132" vType="typeCar" speedFactor="1.00" vaporized=""/>
    <tripinfo id="car_120" depart="65.00" departLane="n2A_0" departPos="5.10" departSpeed="0.00" departDelay="0.00" arrival="120.00" arrivalLane="A2s_0" arrivalPos="189.60" arrivalSpeed="13.87" duration="55.00" routeLength="394.90" waitingTime="2.00" waitingCount="1" stopTime="0.00" timeLoss="26.50" rerouteNo="0" devices="tripinfo_car_120" vType="typeCar" speedFactor="1.00" vaporized=""/>
    <tripinfo id="car_147" depart="79.00" departLane="n2A_0" departPos="5.10" departSpeed="0.00" departDelay="0.00" arrival="121.00" arrivalLane="A2s_1" arrivalPos="189.60" arrivalSpeed="13.54" duration="42.00" routeLength="394.90" waitingTime="0.00" waitingCount="0" stopTime="0.00" timeLoss="13.39" rerouteNo="0" devices="tripinfo_car_147" vType="typeCar" speedFactor="1.00" vaporized=""/>
    <tripinfo id="car_159" depart="85.00" departLane="n2A_0" departPos="5.10" departSpeed="0.00" departDelay="0.00" arrival="125.00" arrivalLane="A2s_0" arrivalPos="189.60" arrivalSpeed="13.74" duration="40.00" routeLength="394.90" waitingTime="0.00" waitingCount="0" stopTime="0.00" timeLoss="11.06" rerouteNo="0" devices="tripinfo_car_159" vType="typeCar" speedFactor="1.00" vaporized=""/>
    <tripinfo id="car_175" depart="93.00" departLane="n2A_0" departPos="5.10" departSpeed="0.00" departDelay="0.00" arrival="133.00" arrivalLane="A2s_0" arrivalPos="189.60" arrivalSpeed="13.80" duration="40.00" routeLength="394.90" waitingTime="0.00" waitingCount="0" stopTime="0.00" timeLoss="11.28" rerouteNo="0" devices="tripinfo_car_175" vType="typeCar" speedFactor="1.00" vaporized=""/>
    <tripinfo id="car_178" depart="94.00" departLane="s2A_0" departPos="5.10" departSpeed="0.00" departDelay="0.00" arrival="135.00" arrivalLane="A2n_0" arrivalPos="189.60" arrivalSpeed="13.80" duration="41.00" routeLength="394.90" waitingTime="0.00" waitingCount="0" stopTime="0.00" timeLoss="12.33" rerouteNo="0" devices="tripinfo_car_178" vType="typeCar" speedFactor="1.00" vaporized=""/>
    <tripinfo id="car_183" depart="98.00" departLane="n2A_0" departPos="5.10" departSpeed="0.00" departDelay="2.00" arrival="139.00" arrivalLane="A2s_0" arrivalPos="189.60" arrivalSpeed="13.65" duration="41.00" routeLength="394.90" waitingTime="0.00" waitingCount="0" stopTime="0.00" timeLoss="11.62" rerouteNo="0" devices="tripinfo_car_183" vType="typeCar" speedFactor="1.00" vaporized=""/>
    <tripinfo id="car_33" depart="71.00" departLane="w2A_0" departPos="5.10" departSpeed="0.00" departDelay="53.00" arrival="161.00" arrivalLane="A2e_1" arrivalPos="189.60" arrivalSpeed="13.86" duration="90.00" routeLength="394.90" waitingTime="37.00" waitingCount="1" stopTime="0.00" timeLoss="61.32" rerouteNo="0" devices="tripinfo_car_33" vType="typeCar" speedFactor="1.00" vaporized=""/>
    <tripinfo id="car_27" depart="67.00" departLane="e2A_0" departPos="5.10" departSpeed="0.00" departDelay="52.00" arrival="161.00" arrivalLane="A2w_1" arrivalPos="189.60" arrivalSpeed="13.78" duration="94.00" routeLength="394.90" waitingTime="39.00" waitingCount="2" stopTime="0.00" timeLoss="64.98" rerouteNo="0" devices="tripinfo_car_27" vType="typeCar" speedFactor="1.00" vaporized=""/>
    <tripinfo id="car_25" depart="62.00" departLane="e2A_0" departPos="5.10" departSpeed="0.00" departDelay="48.00" arrival="161.00" arrivalLane="A2w_0" arrivalPos="189.60" arrivalSpeed="13.77" duration="99.00" routeLength="394.90" waitingTime="45.00" waitingCount="1" stopTime="0.00" timeLoss="69.77" rerouteNo="0" devices="tripinfo_car_25" vType="typeCar" speedFactor="1.00" vaporized=""/>
    <tripinfo id="car_30" depart="66.00" departLane="w2A_0" departPos="5.10" departSpeed="0.00" departDelay="49.00" arrival="162.00" arrivalLane="A2e_0" arrivalPos="189.60" arrivalSpeed="13.58" duration="96.00" routeLength="394.90" waitingTime="43.00" waitingCount="1" stopTime="0.00" timeLoss="66.67" rerouteNo="0" devices="tripinfo_car_30" vType="typeCar" speedFactor="1.00" vaporized=""/>
    <tripinfo id="car_37" depart="81.00" departLane="w2A_0" departPos="5.10" departSpeed="0.00" departDelay="61.00" arrival="163.00" arrivalLane="A2e_1" arrivalPos="189.60" arrivalSpeed="13.53" duration="82.00" routeLength="394.90" waitingTime="27.00" waitingCount="1" stopTime="0.00" timeLoss="53.40" rerouteNo="0" devices="tripinfo_car_37" vType="typeCar" speedFactor="1.00" vaporized=""/>
    <tripinfo id="car_31" depart="78.00" departLane="e2A_0" departPos="5.10" departSpeed="0.00" departDelay="61.00" arrival="163.00" arrivalLane="A2w_1" arrivalPos="189.60" arrivalSpeed="13.87" duration="85.00" routeLength="394.90" waitingTime="31.00" waitingCount="1" stopTime="0.00" timeLoss="55.61" rerouteNo="0" devices="tripinfo_car_31" vType="typeCar" speedFactor="1.00" vaporized=""/>
    <tripinfo id="car_35" depart="76.00" departLane="w2A_0" departPos="5.10" departSpeed="0.00" departDelay="57.00" arrival="163.00" arrivalLane="A2e_0" arrivalPos="189.60" arrivalSpeed="13.60" duration="87.00" routeLength="394.90" waitingTime="33.00" waitingCount="1" stopTime="0.00" timeLoss="58.41" rerouteNo="0" devices="tripinfo_car_35" vType="typeCar" speedFactor="1.00" vaporized=""/>
    <tripinfo id="car_29" depart="73.00" departLane="e2A_0" departPos="5.10" departSpeed="0.00" departDelay="57.00" arrival="163.00" arrivalLane="A2w_0" arrivalPos="189.60" arrivalSpeed="13.55" duration="90.00" routeLength="394.90" waitingTime="35.00" waitingCount="1" stopTime="0.00" timeLoss="61.02" rerouteNo="0" devices="tripinfo_car_29" vType="typeCar" speedFactor="1.00" vaporized=""/>
    <tripinfo id="car_36" depart="88.00" departLane="e2A_0" departPos="5.10" departSpeed="0.00" departDelay="69.00" arrival="164.00" arrivalLane="A2w_1" arrivalPos="189.60" arrivalSpeed="13.53" duration="76.00" routeLength="394.90" waitingTime="21.00" waitingCount="1" stopTime="0.00" timeLoss="47.53" rerouteNo="0" devices="tripinfo_car_36" vType="typeCar" speedFactor="1.00" vaporized=""/>
    <tripinfo id="car_41" depart="91.00" departLane="w2A_0" departPos="5.10" departSpeed="0.00" departDelay="69.00" arrival="165.00" arrivalLane="A2e_1" arrivalPos="189.60" arrivalSpeed="13.62" duration="74.00" routeLength="394.90" waitingTime="21.00" waitingCount="1" stopTime="0.00" timeLoss="45.08" rerouteNo="0" devices="tripinfo_car_41" vType="typeCar" speedFactor="1.00" vaporized=""/>
    <tripinfo id="car_39" depart="86.00" departLane="w2A_0" departPos="5.10" departSpeed="0.00" departDelay="65.00" arrival="165.00" arrivalLane="A2e_0" arrivalPos="189.60" arrivalSpeed="13.74" duration="79.00" routeLength="394.90" waitingTime="24.00" waitingCount="1" stopTime="0.00" timeLoss="50.03" rerouteNo="0" devices="tripinfo_car_39" vType="typeCar" speedFactor="1.00" vaporized=""/>
    <tripinfo id="car_34" depart="83.00" departLane="e2A_0" departPos="5.10" departSpeed="0.00" departDelay="65.00" arrival="165.00" arrivalLane="A2w_0" arrivalPos="189.60" arrivalSpeed="13.61" duration="82.00" routeLength="394.90" waitingTime="27.00" waitingCount="1" stopTime="0.00" timeLoss="53.37" rerouteNo="0" devices="tripinfo_car_34" vType="typeCar" speedFactor="1.00" vaporized=""/>
    <tripinfo id="car_45" depart="101.00" departLane="w2A_0" departPos="5.10" departSpeed="0.00" departDelay="76.00" arrival="167.00" arrivalLane="A2e_1" arrivalPos="189.60" arrivalSpeed="13.56" duration="66.00" routeLength="394.90" waitingTime="11.00" waitingCount="1" stopTime="0.00" timeLoss="37.48" rerouteNo="0" devices="tripinfo_car_45" vType="typeCar" speedFactor="1.00" vaporized=""/>
    <tripinfo id="car_42" depart="98.00" departLane="e2A_0" departPos="5.10" departSpeed="0.00" departDelay="76.00" arrival="167.00" arrivalLane="A2w_1" arrivalPos="189.60" arrivalSpeed="13.60" duration="69.00" routeLength="394.90" waitingTime="12.00" waitingCount="1" stopTime="0.00" timeLoss="40.57" rerouteNo="0" devices="tripinfo_car_42" vType="typeCar" speedFactor="1.00" vaporized=""/>
    <tripinfo id="car_44" depart="96.00" departLane="w2A_0" departPos="5.10" departSpeed="0.00" departDelay="72.00" arrival="167.00" arrivalLane="A2e_0" arrivalPos="189.60" arrivalSpeed="13.57" duration="71.00" routeLength="394.90" waitingTime="16.00" waitingCount="1" stopTime="0.00" timeLoss="42.18" rerouteNo="0" devices="tripinfo_car_44" vType="typeCar" speedFactor="1.00" vaporized=""/>
    <tripinfo id="car_38" depart="93.00" departLane="e2A_0" departPos="5.10" departSpeed="0.00" departDelay="73.00" arrival="167.00" arrivalLane="A2w_0" arrivalPos="189.60" arrivalSpeed="13.73" duration="74.00" routeLength="394.90" waitingTime="20.00" waitingCount="1" stopTime="0.00" timeLoss="45.11" rerouteNo="0" devices="tripinfo_car_38" vType="typeCar" speedFactor="1.00" vaporized=""/>
    <tripinfo id="car_48" depart="112.00" departLane="w2A_0" departPos="5.10" departSpeed="0.00" departDelay="85.00" arrival="169.00" arrivalLane="A2e_1" arrivalPos="189.60" arrivalSpeed="13.72" duration="57.00" routeLength="394.90" waitingTime="0.00" waitingCount="0" stopTime="0.00" timeLoss="28.20" rerouteNo="0" devices="tripinfo_car_48" vType="typeCar" speedFactor="1.00" vaporized=""/>
    <tripinfo id="car_47" depart="108.00" departLane="e2A_0" departPos="5.10" departSpeed="0.00" departDelay="82.00" arrival="169.00" arrivalLane="A2w_1" arrivalPos="189.60" arrivalSpeed="13.65" duration="61.00" routeLength="394.90" waitingTime="5.00" waitingCount="1" stopTime="0.00" timeLoss="32.22" rerouteNo="0" devices="tripinfo_car_47" vType="typeCar" speedFactor="1.00" vaporized=""/>
    <tripinfo id="car_46" depart="106.00" departLane="w2A_0" departPos="5.10" departSpeed="0.00" departDelay="80.00" arrival="169.00" arrivalLane="A2e_0" arrivalPos="189.60" arrivalSpeed="13.59" duration="63.00" routeLength="394.90" waitingTime="7.00" waitingCount="1" stopTime="0.00" timeLoss="33.86" rerouteNo="0" devices="tripinfo_car_46" vType="typeCar" speedFactor="1.00" vaporized=""/>
    <tripinfo id="car_43" depart="103.00" departLane="e2A_0" departPos="5.10" departSpeed="0.00" departDelay="80.00" arrival="169.00" arrivalLane="A2w_0" arrivalPos="189.60" arrivalSpeed="13.62" duration="66.00" routeLength="394.90" waitingTime="12.00" waitingCount="1" stopTime="0.00" timeLoss="36.73" rerouteNo="0" devices="tripinfo_car_43" vType="typeCar" speedFactor="1.00" vaporized=""/>
    <tripinfo id="car_49" depart="113.00" departLane="e2A_0" departPos="5.10" departSpeed="0.00" departDelay="86.00" arrival="170.00" arrivalLane="A2w_0" arrivalPos="189.60" arrivalSpeed="13.52" duration="57.00" routeLength="394.90" waitingTime="4.00" waitingCount="1" stopTime="0.00" timeLoss="28.43" rerouteNo="0" devices="tripinfo_car_49" vType="typeCar" speedFactor="1.00" vaporized=""/>
    <tripinfo id="car_52" depart="122.00" departLane="w2A_0" departPos="5.10" departSpeed="0.00" departDelay="93.00" arrival="171.00" arrivalLane="A2e_1" arrivalPos="189.60" arrivalSpeed="13.53" duration="49.00" routeLength="394.90" waitingTime="0.00" waitingCount="0" stopTime="0.00" timeLoss="20.34" rerouteNo="0" devices="tripinfo_car_52" vType="typeCar" speedFactor="1.00" vaporized=""/>
    <tripinfo id="car_51" depart="118.00" departLane="e2A_0" departPos="5.10" departSpeed="0.00" departDelay="90.00" arrival="171.00" arrivalLane="A2w_1" arrivalPos="189.60" arrivalSpeed="13.74" duration="53.00" routeLength="394.90" waitingTime="0.00" waitingCount="0" stopTime="0.00" timeLoss="24.25" rerouteNo="0" devices="tripinfo_car_51" vType="typeCar" speedFactor="1.00" vaporized=""/>
    <tripinfo id="car_50" depart="117.00" departLane="w2A_0" departPos="5.10" departSpeed="0.00" departDelay="89.00" arrival="171.00" arrivalLane="A2e_0" arrivalPos="189.60" arrivalSpeed="13.76" duration="54.00" routeLength="394.90" waitingTime="0.00" waitingCount="0" stopTime="0.00" timeLoss="24.86" rerouteNo="0" devices="tripinfo_car_50" vType="typeCar" speedFactor="1.00" vaporized=""/>
    <tripinfo id="car_56" depart="128.00" departLane="e2A_0" departPos="5.10" departSpeed="0.00" departDelay="97.00" arrival="172.00" arrivalLane="A2w_0" arrivalPos="189.60" arrivalSpeed="13.61" duration="44.00" routeLength="394.90" waitingTime="0.00" waitingCount="0" stopTime="0.00" timeLoss="15.11" rerouteNo="0" devices="tripinfo_car_56" vType="typeCar" speedFactor="1.00" vaporized=""/>
    <tripinfo id="car_54" depart="127.00" departLane="w2A_0" departPos="5.10" departSpeed="0.00" departDelay="97.00" arrival="173.00" arrivalLane="A2e_1" arrivalPos="189.60" arrivalSpeed="13.51" duration="46.00" routeLength="394.90" waitingTime="0.00" waitingCount="0" stopTime="0.00" timeLoss="17.03" rerouteNo="0" devices="tripinfo_car_54" vType="typeCar" speedFactor="1.00" vaporized=""/>
    <tripinfo id="car_53" depart="123.00" departLane="e2A_0" departPos="5.10" departSpeed="0.00" departDelay="94.00" arrival="173.00" arrivalLane="A2w_1" arrivalPos="189.60" arrivalSpeed="13.83" duration="50.00" routeLength="394.90" waitingTime="0.00" waitingCount="0" stopTime="0.00" timeLoss="21.06" rerouteNo="0" devices="tripinfo_car_53" vType="typeCar" speedFactor="1.00" vaporized=""/>
    <tripinfo id="car_55" depart="132.00" departLane="w2A_0" departPos="5.10" departSpeed="0.00" departDelay="101.00" arrival="173.00" arrivalLane="A2e_0" arrivalPos="189.60" arrivalSpeed="13.49" duration="41.00" routeLength="394.90" waitingTime="0.00" waitingCount="0" stopTime="0.00" timeLoss="12.06" rerouteNo="0" devices="tripinfo_car_55" vType="typeCar" speedFactor="1.00" vaporized=""/>
    <tripinfo id="car_58" depart="133.00" departLane="e2A_0" departPos="5.10" departSpeed="0.00" departDelay="101.00" arrival="174.00" arrivalLane="A2w_0" arrivalPos="189.60" arrivalSpeed="13.67" duration="41.00" routeLength="394.90" waitingTime="0.00" waitingCount="0" stopTime="0.00" timeLoss="11.76" rerouteNo="0" devices="tripinfo_car_58" vType="typeCar" speedFactor="1.00" vaporized=""/>
    <tripinfo id="car_57" depart="138.00" departLane="w2A_0" departPos="5.10" departSpeed="0.00" departDelay="106.00" arrival="179.00" arrivalLane="A2e_0" arrivalPos="189.60" arrivalSpeed="13.75" duration="41.00" routeLength="394.90" waitingTime="0.00" waitingCount="0" stopTime="0.00" timeLoss="11.78" rerouteNo="0" devices="tripinfo_car_57" vType="typeCar" speedFactor="1.00" vaporized=""/>
    <tripinfo id="car_59" depart="139.00" departLane="e2A_0" departPos="5.10" departSpeed="0.00" departDelay="106.00" arrival="179.00" arrivalLane="A2w_0" arrivalPos="189.60" arrivalSpeed="13.77" duration="40.00" routeLength="394.90" waitingTime="0.00" waitingCount="0" stopTime="0.00" timeLoss="11.27" rerouteNo="0" devices="tripinfo_car_59" vType="typeCar" speedFactor="1.00" vaporized=""/>
    <tripinfo id="car_61" depart="143.00" departLane="w2A_0" departPos="5.10" departSpeed="0.00" departDelay="108.00" arrival="184.00" arrivalLane="A2e_0" arrivalPos="189.60" arrivalSpeed="13.51" duration="41.00" routeLength="394.90" waitingTime="0.00" waitingCount="0" stopTime="0.00" timeLoss="11.70" rerouteNo="0" devices="tripinfo_car_61" vType="typeCar" speedFactor="1.00" vaporized=""/>
    <tripinfo id="car_60" depart="144.00" departLane="e2A_0" departPos="5.10" departSpeed="0.00" departDelay="110.00" arrival="185.00" arrivalLane="A2w_0" arrivalPos="189.60" arrivalSpeed="13.77" duration="41.00" routeLength="394.90" waitingTime="0.00" waitingCount="0" stopTime="0.00" timeLoss="12.23" rerouteNo="0" devices="tripinfo_car_60" vType="typeCar" speedFactor="1.00" vaporized=""/>