<?xml version="1.0" encoding="UTF-8"?>

<!-- generated on Fri Sep  7 08:39:05 2018 by Eclipse SUMO GUI Version v0_32_0+2411-189ca3ff4b
<configuration xmlns:xsi="http://www.w3.org/2001/XMLSchema-instance" xsi:noNamespaceSchemaLocation="http://sumo.dlr.de/xsd/sumoConfiguration.xsd">

    <input>
        <net-file value="data/cross.net.xml"/>
        <route-files value="data/cross.rou.xml"/>
        <additional-files value="data/cross.det.xml"/>
    </input>

    <output>
        <tripinfo-output value="tripinfo.xml"/>
    </output>

    <time>
        <begin value="0"/>
    </time>

    <report>
        <verbose value="true"/>
        <no-step-log value="true"/>
    </report>

    <traci_server>
        <remote-port value="54040"/>
    </traci_server>

</configuration>
-->

<tripinfos xmlns:xsi="http://www.w3.org/2001/XMLSchema-instance" xsi:noNamespaceSchemaLocation="http://sumo.dlr.de/xsd/tripinfo_file.xsd">
    <tripinfo id="car_2" depart="1.00" departLane="s2A_0" departPos="5.10" departSpeed="0.00" departDelay="0.00" arrival="41.00" arrivalLane="A2n_0" arrivalPos="189.60" arrivalSpeed="13.50" duration="40.00" routeLength="394.90" waitingTime="0.00" waitingCount="0" stopTime="0.00" timeLoss="11.43" rerouteNo="0" devices="tripinfo_car_2" vType="typeCar" speedFactor="1.00" vaporized=""/>
    <tripinfo id="car_3" depart="5.00" departLane="w2A_0" departPos="5.10" departSpeed="0.00" departDelay="4.00" arrival="70.00" arrivalLane="A2e_1" arrivalPos="189.60" arrivalSpeed="13.77" duration="65.00" routeLength="394.90" waitingTime="11.00" waitingCount="1" stopTime="0.00" timeLoss="36.53" rerouteNo="0" devices="tripinfo_car_3" vType="typeCar" speedFactor="1.00" vaporized=""/>
    <tripinfo id="car_6" depart="5.00" departLane="e2A_0" departPos="5.10" departSpeed="0.00" departDelay="2.00" arrival="71.00" arrivalLane="A2w_1" arrivalPos="189.60" arrivalSpeed="13.87" duration="66.00" routeLength="394.90" waitingTime="12.00" waitingCount="1" stopTime="0.00" timeLoss="37.33" rerouteNo="0" devices="tripinfo_car_6" vType="typeCar" speedFactor="1.00" vaporized=""/>
    <tripinfo id="car_0" depart="0.00" departLane="w2A_0" departPos="5.10" departSpeed="0.00" departDelay="0.00" arrival="71.00" arrivalLane="A2e_0" arrivalPos="189.60" arrivalSpeed="13.82" duration="71.00" routeLength="394.90" waitingTime="18.00" waitingCount="1" stopTime="0.00" timeLoss="42.27" rerouteNo="0" devices="tripinfo_car_0" vType="typeCar" speedFactor="1.00" vaporized=""/>
    <tripinfo id="car_1" depart="0.00" departLane="e2A_0" departPos="5.10" departSpeed="0.00" departDelay="0.00" arrival="72.00" arrivalLane="A2w_0" arrivalPos="189.60" arrivalSpeed="13.73" duration="72.00" routeLength="394.90" waitingTime="17.00" waitingCount="1" stopTime="0.00" timeLoss="42.91" rerouteNo="0" devices="tripinfo_car_1" vType="typeCar" speedFactor="1.00" vaporized=""/>
    <tripinfo id="car_10" depart="15.00" departLane="e2A_0" departPos="5.10" departSpeed="0.00" departDelay="10.00" arrival="73.00" arrivalLane="A2w_1" arrivalPos="189.60" arrivalSpeed="13.60" duration="58.00" routeLength="394.90" waitingTime="4.00" waitingCount="1" stopTime="0.00" timeLoss="29.22" rerouteNo="0" devices="tripinfo_car_10" vType="typeCar" speedFactor="1.00" vaporized=""/>
    <tripinfo id="car_8" depart="10.00" departLane="e2A_0" departPos="5.10" departSpeed="0.00" departDelay="6.00" arrival="73.00" arrivalLane="A2w_0" arrivalPos="189.60" arrivalSpeed="13.73" duration="63.00" routeLength="394.90" waitingTime="10.00" waitingCount="1" stopTime="0.00" timeLoss="34.52" rerouteNo="0" devices="tripinfo_car_8" vType="typeCar" speedFactor="1.00" vaporized=""/>
    <tripinfo id="car_5" depart="16.00" departLane="w2A_0" departPos="5.10" departSpeed="0.00" departDelay="13.00" arrival="73.00" arrivalLane="A2e_1" arrivalPos="189.60" arrivalSpeed="13.75" duration="57.00" routeLength="394.90" waitingTime="4.00" waitingCount="1" stopTime="0.00" timeLoss="27.75" rerouteNo="0" devices="tripinfo_car_5" vType="typeCar" speedFactor="1.00" vaporized=""/>
    <tripinfo id="car_4" depart="11.00" departLane="w2A_0" departPos="5.10" departSpeed="0.00" departDelay="9.00" arrival="73.00" arrivalLane="A2e_0" arrivalPos="189.60" arrivalSpeed="13.64" duration="62.00" routeLength="394.90" waitingTime="9.00" waitingCount="1" stopTime="0.00" timeLoss="33.42" rerouteNo="0" devices="tripinfo_car_4" vType="typeCar" speedFactor="1.00" vaporized=""/>
    <tripinfo id="car_9" depart="26.00" departLane="w2A_0" departPos="5.10" departSpeed="0.00" departDelay="21.00" arrival="74.00" arrivalLane="A2e_1" arrivalPos="189.60" arrivalSpeed="13.62" duration="48.00" routeLength="394.90" waitingTime="0.00" waitingCount="0" stopTime="0.00" timeLoss="19.54" rerouteNo="0" devices="tripinfo_car_9" vType="typeCar" speedFactor="1.00" vaporized=""/>
    <tripinfo id="car_16" depart="25.00" departLane="e2A_0" departPos="5.10" departSpeed="0.00" departDelay="16.00" arrival="75.00" arrivalLane="A2w_1" arrivalPos="189.60" arrivalSpeed="13.75" duration="50.00" routeLength="394.90" waitingTime="0.00" waitingCount="0" stopTime="0.00" timeLoss="20.81" rerouteNo="0" devices="tripinfo_car_16" vType="typeCar" speedFactor="1.00" vaporized=""/>
    <tripinfo id="car_7" depart="21.00" departLane="w2A_0" departPos="5.10" departSpeed="0.00" departDelay="17.00" arrival="75.00" arrivalLane="A2e_0" arrivalPos="189.60" arrivalSpeed="13.56" duration="54.00" routeLength="394.90" waitingTime="0.00" waitingCount="0" stopTime="0.00" timeLoss="25.09" rerouteNo="0" devices="tripinfo_car_7" vType="typeCar" speedFactor="1.00" vaporized=""/>
    <tripinfo id="car_18" depart="30.00" departLane="e2A_0" departPos="5.10" departSpeed="0.00" departDelay="20.00" arrival="76.00" arrivalLane="A2w_1" arrivalPos="189.60" arrivalSpeed="13.51" duration="46.00" routeLength="394.90" waitingTime="0.00" waitingCount="0" stopTime="0.00" timeLoss="17.43" rerouteNo="0" devices="tripinfo_car_18" vType="typeCar" speedFactor="1.00" vaporized=""/>
    <tripinfo id="car_13" depart="20.00" departLane="e2A_0" departPos="5.10" departSpeed="0.00" departDelay="13.00" arrival="76.00" arrivalLane="A2w_0" arrivalPos="189.60" arrivalSpeed="13.69" duration="56.00" routeLength="394.90" waitingTime="1.00" waitingCount="1" stopTime="0.00" timeLoss="26.68" rerouteNo="0" devices="tripinfo_car_13" vType="typeCar" speedFactor="1.00" vaporized=""/>
    <tripinfo id="car_11" depart="31.00" departLane="w2A_0" departPos="5.10" departSpeed="0.00" departDelay="25.00" arrival="76.00" arrivalLane="A2e_1" arrivalPos="189.60" arrivalSpeed="13.81" duration="45.00" routeLength="394.90" waitingTime="0.00" waitingCount="0" stopTime="0.00" timeLoss="16.36" rerouteNo="0" devices="tripinfo_car_11" vType="typeCar" speedFactor="1.00" vaporized=""/>
    <tripinfo id="car_19" depart="35.00" departLane="e2A_0" departPos="5.10" departSpeed="0.00" departDelay="24.00" arrival="77.00" arrivalLane="A2w_0" arrivalPos="189.60" arrivalSpeed="13.61" duration="42.00" routeLength="394.90" waitingTime="0.00" waitingCount="0" stopTime="0.00" timeLoss="13.29" rerouteNo="0" devices="tripinfo_car_19" vType="typeCar" speedFactor="1.00" vaporized=""/>
    <tripinfo id="car_12" depart="36.00" departLane="w2A_0" departPos="5.10" departSpeed="0.00" departDelay="29.00" arrival="77.00" arrivalLane="A2e_0" arrivalPos="189.60" arrivalSpeed="13.87" duration="41.00" routeLength="394.90" waitingTime="0.00" waitingCount="0" stopTime="0.00" timeLoss="11.75" rerouteNo="0" devices="tripinfo_car_12" vType="typeCar" speedFactor="1.00" vaporized=""/>
    <tripinfo id="car_21" depart="41.00" departLane="e2A_0" departPos="5.10" departSpeed="0.00" departDelay="29.00" arrival="81.00" arrivalLane="A2w_0" arrivalPos="189.60" arrivalSpeed="13.76" duration="40.00" routeLength="394.90" waitingTime="0.00" waitingCount="0" stopTime="0.00" timeLoss="11.57" rerouteNo="0" devices="tripinfo_car_21" vType="typeCar" speedFactor="1.00" vaporized=""/>
    <tripinfo id="car_14" depart="41.00" departLane="w2A_0" departPos="5.10" departSpeed="0.00" departDelay="33.00" arrival="81.00" arrivalLane="A2e_0" arrivalPos="189.60" arrivalSpeed="13.83" duration="40.00" routeLength="394.90" waitingTime="0.00" waitingCount="0" stopTime="0.00" timeLoss="11.40" rerouteNo="0" devices="tripinfo_car_14" vType="typeCar" speedFactor="1.00" vaporized=""/>
    <tripinfo id="car_23" depart="46.00" departLane="e2A_0" departPos="5.10" departSpeed="0.00" departDelay="32.00" arrival="86.00" arrivalLane="A2w_0" arrivalPos="189.60" arrivalSpeed="13.67" duration="40.00" routeLength="394.90" waitingTime="0.00" waitingCount="0" stopTime="0.00" timeLoss="10.83" rerouteNo="0" devices="tripinfo_car_23" vType="typeCar" speedFactor="1.00" vaporized=""/>
    <tripinfo id="car_15" depart="46.00" departLane="w2A_0" departPos="5.10" departSpeed="0.00" departDelay="37.00" arrival="87.00" arrivalLane="A2e_0" arrivalPos="189.60" arrivalSpeed="13.57" duration="41.00" routeLength="394.90" waitingTime="0.00" waitingCount="0" stopTime="0.00" timeLoss="11.98" rerouteNo="0" devices="tripinfo_car_15" vType="typeCar" speedFactor="1.00" vaporized=""/>
    <tripinfo id="car_26" depart="51.00" departLane="e2A_0" departPos="5.10" departSpeed="0.00" departDelay="35.00" arrival="92.00" arrivalLane="A2w_0" arrivalPos="189.60" arrivalSpeed="13.56" duration="41.00" routeLength="394.90" waitingTime="0.00" waitingCount="0" stopTime="0.00" timeLoss="11.70" rerouteNo="0" devices="tripinfo_car_26" vType="typeCar" speedFactor="1.00" vaporized=""/>
    <tripinfo id="car_17" depart="52.00" departLane="w2A_0" departPos="5.10" departSpeed="0.00" departDelay="42.00" arrival="94.00" arrivalLane="A2e_0" arrivalPos="189.60" arrivalSpeed="13.86" duration="42.00" routeLength="394.90" waitingTime="0.00" waitingCount="0" stopTime="0.00" timeLoss="12.59" rerouteNo="0" devices="tripinfo_car_17" vType="typeCar" speedFactor="1.00" vaporized=""/>
    <tripinfo id="car_28" depart="56.00" departLane="e2A_0" departPos="5.10" departSpeed="0.00" departDelay="39.00" arrival="96.00" arrivalLane="A2w_0" arrivalPos="189.60" arrivalSpeed="13.67" duration="40.00" routeLength="394.90" waitingTime="0.00" waitingCount="0" stopTime="0.00" timeLoss="11.00" rerouteNo="0" devices="tripinfo_car_28" vType="typeCar" speedFactor="1.00" vaporized=""/>
    <tripinfo id="car_20" depart="58.00" departLane="w2A_0" departPos="5.10" departSpeed="0.00" departDelay="46.00" arrival="99.00" arrivalLane="A2e_0" arrivalPos="189.60" arrivalSpeed="13.75" duration="41.00" routeLength="394.90" waitingTime="0.00" waitingCount="0" stopTime="0.00" timeLoss="11.75" rerouteNo="0" devices="tripinfo_car_20" vType="typeCar" speedFactor="1.00" vaporized=""/>
    <tripinfo id="car_30" depart="61.00" departLane="e2A_0" departPos="5.10" departSpeed="0.00" departDelay="43.00" arrival="101.00" arrivalLane="A2w_0" arrivalPos="189.60" arrivalSpeed="13.63" duration="40.00" routeLength="394.90" waitingTime="0.00" waitingCount="0" stopTime="0.00" timeLoss="11.54" rerouteNo="0" devices="tripinfo_car_30" vType="typeCar" speedFactor="1.00" vaporized=""/>
    <tripinfo id="car_22" depart="63.00" departLane="w2A_0" departPos="5.10" departSpeed="0.00" departDelay="50.00" arrival="104.00" arrivalLane="A2e_0" arrivalPos="189.60" arrivalSpeed="13.82" duration="41.00" routeLength="394.90" waitingTime="0.00" waitingCount="0" stopTime="0.00" timeLoss="12.21" rerouteNo="0" devices="tripinfo_car_22" vType="typeCar" speedFactor="1.00" vaporized=""/>
    <tripinfo id="car_46" depart="27.00" departLane="n2A_0" departPos="5.10" departSpeed="0.00" departDelay="0.00" arrival="116.00" arrivalLane="A2s_0" arrivalPos="189.60" arrivalSpeed="13.78" duration="89.00" routeLength="394.90" waitingTime="36.00" waitingCount="1" stopTime="0.00" timeLoss="60.02" rerouteNo="0" devices="tripinfo_car_46" vType="typeCar" speedFactor="1.00" vaporized=""/>
    <tripinfo id="car_58" depart="33.00" departLane="s2A_0" departPos="5.10" departSpeed="0.00" departDelay="0.00" arrival="116.00" arrivalLane="A2n_0" arrivalPos="189.60" arrivalSpeed="13.68" duration="83.00" routeLength="394.90" waitingTime="30.00" waitingCount="1" stopTime="0.00" timeLoss="53.84" rerouteNo="0" devices="tripinfo_car_58" vType="typeCar" speedFactor="1.00" vaporized=""/>
    <tripinfo id="car_55" depart="32.00" departLane="n2A_0" departPos="5.10" departSpeed="0.00" departDelay="1.00" arrival="117.00" arrivalLane="A2s_1" arrivalPos="189.60" arrivalSpeed="13.82" duration="85.00" routeLength="394.90" waitingTime="31.00" waitingCount="1" stopTime="0.00" timeLoss="55.87" rerouteNo="0" devices="tripinfo_car_55" vType="typeCar" speedFactor="1.00" vaporized=""/>
    <tripinfo id="car_132" depart="76.00" departLane="s2A_0" departPos="5.10" departSpeed="0.00" departDelay="0.00" arrival="117.00" arrivalLane="A2n_0" arrivalPos="189.60" arrivalSpeed="13.76" duration="41.00" routeLength="394.90" waitingTime="0.00" waitingCount="0" stopTime="0.00" timeLoss="12.49" rerouteNo="0" devices="tripinfo_car_132" vType="typeCar" speedFactor="1.00" vaporized=""/>
    <tripinfo id="car_109" depart="63.00" departLane="n2A_0" departPos="5.10" departSpeed="0.00" departDelay="0.00" arrival="118.00" arrivalLane="A2s_0" arrivalPos="189.60" arrivalSpeed="13.65" duration="55.00" routeLength="394.90" waitingTime="1.00" waitingCount="1" stopTime="0.00" timeLoss="26.32" rerouteNo="0" devices="tripinfo_car_109" vType="typeCar" speedFactor="1.00" vaporized=""/>
    <tripinfo id="car_116" depart="68.00" departLane="n2A_0" departPos="5.10" departSpeed="0.00" departDelay="1.00" arrival="119.00" arrivalLane="A2s_1" arrivalPos="189.60" arrivalSpeed="13.82" duration="51.00" routeLength="394.90" waitingTime="0.00" waitingCount="0" stopTime="0.00" timeLoss="21.64" rerouteNo="0" devices="tripinfo_car_116" vType="typeCar" speedFactor="1.00" vaporized=""/>
    <tripinfo id="car_152" depart="86.00" departLane="s2A_0" departPos="5.10" departSpeed="0.00" departDelay="0.00" arrival="125.00" arrivalLane="A2n_0" arrivalPos="189.60" arrivalSpeed="13.68" duration="39.00" routeLength="394.90" waitingTime="0.00" waitingCount="0" stopTime="0.00" timeLoss="10.27" rerouteNo="0" devices="tripinfo_car_152" vType="typeCar" speedFactor="1.00" vaporized=""/>
    <tripinfo id="car_176" depart="98.00" departLane="n2A_0" departPos="5.10" departSpeed="0.00" departDelay="0.00" arrival="138.00" arrivalLane="A2s_0" arrivalPos="189.60" arrivalSpeed="13.87" duration="40.00" routeLength="394.90" waitingTime="0.00" waitingCount="0" stopTime="0.00" timeLoss="11.49" rerouteNo="0" devices="tripinfo_car_176" vType="typeCar" speedFactor="1.00" vaporized=""/>
    <tripinfo id="car_188" depart="104.00" departLane="s2A_0" departPos="5.10" departSpeed="0.00" departDelay="0.00" arrival="145.00" arrivalLane="A2n_0" arrivalPos="189.60" arrivalSpeed="13.72" duration="41.00" routeLength="394.90" waitingTime="0.00" waitingCount="0" stopTime="0.00" timeLoss="11.69" rerouteNo="0" devices="tripinfo_car_188" vType="typeCar" speedFactor="1.00" vaporized=""/>
    <tripinfo id="car_35" depart="71.00" departLane="e2A_0" departPos="5.10" departSpeed="0.00" departDelay="50.00" arrival="160.00" arrivalLane="A2w_1" arrivalPos="189.60" arrivalSpeed="13.73" duration="89.00" routeLength="394.90" waitingTime="35.00" waitingCount="1" stopTime="0.00" timeLoss="60.24" rerouteNo="0" devices="tripinfo_car_35" vType="typeCar" speedFactor="1.00" vaporized=""/>
    <tripinfo id="car_25" depart="73.00" departLane="w2A_0" departPos="5.10" departSpeed="0.00" departDelay="57.00" arrival="161.00" arrivalLane="A2e_1" arrivalPos="189.60" arrivalSpeed="13.85" duration="88.00" routeLength="394.90" waitingTime="33.00" waitingCount="1" stopTime="0.00" timeLoss="59.19" rerouteNo="0" devices="tripinfo_car_25" vType="typeCar" speedFactor="1.00" vaporized=""/>
    <tripinfo id="car_24" depart="68.00" departLane="w2A_0" departPos="5.10" departSpeed="0.00" departDelay="53.00" arrival="161.00" arrivalLane="A2e_0" arrivalPos="189.60" arrivalSpeed="13.75" duration="93.00" routeLength="394.90" waitingTime="39.00" waitingCount="1" stopTime="0.00" timeLoss="64.34" rerouteNo="0" devices="tripinfo_car_24" vType="typeCar" speedFactor="1.00" vaporized=""/>
    <tripinfo id="car_33" depart="66.00" departLane="e2A_0" departPos="5.10" departSpeed="0.00" departDelay="46.00" arrival="161.00" arrivalLane="A2w_0" arrivalPos="189.60" arrivalSpeed="13.76" duration="95.00" routeLength="394.90" waitingTime="42.00" waitingCount="1" stopTime="0.00" timeLoss="65.67" rerouteNo="0" devices="tripinfo_car_33" vType="typeCar" speedFactor="1.00" vaporized=""/>
    <tripinfo id="car_39" depart="81.00" departLane="e2A_0" departPos="5.10" departSpeed="0.00" departDelay="58.00" arrival="162.00" arrivalLane="A2w_1" arrivalPos="189.60" arrivalSpeed="13.71" duration="81.00" routeLength="394.90" waitingTime="27.00" waitingCount="1" stopTime="0.00" timeLoss="52.55" rerouteNo="0" devices="tripinfo_car_39" vType="typeCar" speedFactor="1.00" vaporized=""/>
    <tripinfo id="car_29" depart="83.00" departLane="w2A_0" departPos="5.10" departSpeed="0.00" departDelay="65.00" arrival="163.00" arrivalLane="A2e_1" arrivalPos="189.60" arrivalSpeed="13.59" duration="80.00" routeLength="394.90" waitingTime="25.00" waitingCount="1" stopTime="0.00" timeLoss="50.98" rerouteNo="0" devices="tripinfo_car_29" vType="typeCar" speedFactor="1.00" vaporized=""/>
    <tripinfo id="car_27" depart="78.00" departLane="w2A_0" departPos="5.10" departSpeed="0.00" departDelay="61.00" arrival="163.00" arrivalLane="A2e_0" arrivalPos="189.60" arrivalSpeed="13.61" duration="85.00" routeLength="394.90" waitingTime="33.00" waitingCount="1" stopTime="0.00" timeLoss="56.08" rerouteNo="0" devices="tripinfo_car_27" vType="typeCar" speedFactor="1.00" vaporized=""/>
    <tripinfo id="car_37" depart="76.00" departLane="e2A_0" departPos="5.10" departSpeed="0.00" departDelay="54.00" arrival="163.00" arrivalLane="A2w_0" arrivalPos="189.60" arrivalSpeed="13.63" duration="87.00" routeLength="394.90" waitingTime="33.00" waitingCount="1" stopTime="0.00" timeLoss="57.83" rerouteNo="0" devices="tripinfo_car_37" vType="typeCar" speedFactor="1.00" vaporized=""/>
    <tripinfo id="car_32" depart="93.00" departLane="w2A_0" departPos="5.10" departSpeed="0.00" departDelay="73.00" arrival="164.00" arrivalLane="A2e_1" arrivalPos="189.60" arrivalSpeed="13.61" duration="71.00" routeLength="394.90" waitingTime="16.00" waitingCount="1" stopTime="0.00" timeLoss="42.56" rerouteNo="0" devices="tripinfo_car_32" vType="typeCar" speedFactor="1.00" vaporized=""/>
    <tripinfo id="car_43" depart="91.00" departLane="e2A_0" departPos="5.10" departSpeed="0.00" departDelay="66.00" arrival="164.00" arrivalLane="A2w_1" arrivalPos="189.60" arrivalSpeed="13.77" duration="73.00" routeLength="394.90" waitingTime="18.00" waitingCount="1" stopTime="0.00" timeLoss="44.21" rerouteNo="0" devices="tripinfo_car_43" vType="typeCar" speedFactor="1.00" vaporized=""/>
    <tripinfo id="car_31" depart="88.00" departLane="w2A_0" departPos="5.10" departSpeed="0.00" departDelay="69.00" arrival="165.00" arrivalLane="A2e_0" arrivalPos="189.60" arrivalSpeed="13.76" duration="77.00" routeLength="394.90" waitingTime="24.00" waitingCount="1" stopTime="0.00" timeLoss="47.71" rerouteNo="0" devices="tripinfo_car_31" vType="typeCar" speedFactor="1.00" vaporized=""/>
    <tripinfo id="car_41" depart="86.00" departLane="e2A_0" departPos="5.10" departSpeed="0.00" departDelay="62.00" arrival="165.00" arrivalLane="A2w_0" arrivalPos="189.60" arrivalSpeed="13.62" duration="79.00" routeLength="394.90" waitingTime="25.00" waitingCount="1" stopTime="0.00" timeLoss="50.03" rerouteNo="0" devices="tripinfo_car_41" vType="typeCar" speedFactor="1.00" vaporized=""/>
    <tripinfo id="car_36" depart="104.00" departLane="w2A_0" departPos="5.10" departSpeed="0.00" departDelay="82.00" arrival="166.00" arrivalLane="A2e_1" arrivalPos="189.60" arrivalSpeed="13.74" duration="62.00" routeLength="394.90" waitingTime="8.00" waitingCount="1" stopTime="0.00" timeLoss="33.18" rerouteNo="0" devices="tripinfo_car_36" vType="typeCar" speedFactor="1.00" vaporized=""/>
    <tripinfo id="car_48" depart="101.00" departLane="e2A_0" departPos="5.10" departSpeed="0.00" departDelay="74.00" arrival="166.00" arrivalLane="A2w_1" arrivalPos="189.60" arrivalSpeed="13.88" duration="65.00" routeLength="394.90" waitingTime="11.00" waitingCount="1" stopTime="0.00" timeLoss="36.27" rerouteNo="0" devices="tripinfo_car_48" vType="typeCar" speedFactor="1.00" vaporized=""/>
    <tripinfo id="car_34" depart="98.00" departLane="w2A_0" departPos="5.10" departSpeed="0.00" departDelay="77.00" arrival="167.00" arrivalLane="A2e_0" arrivalPos="189.60" arrivalSpeed="13.59" duration="69.00" routeLength="394.90" waitingTime="13.00" waitingCount="1" stopTime="0.00" timeLoss="39.84" rerouteNo="0" devices="tripinfo_car_34" vType="typeCar" speedFactor="1.00" vaporized=""/>
    <tripinfo id="car_45" depart="96.00" departLane="e2A_0" departPos="5.10" departSpeed="0.00" departDelay="70.00" arrival="167.00" arrivalLane="A2w_0" arrivalPos="189.60" arrivalSpeed="13.73" duration="71.00" routeLength="394.90" waitingTime="16.00" waitingCount="1" stopTime="0.00" timeLoss="41.91" rerouteNo="0" devices="tripinfo_car_45" vType="typeCar" speedFactor="1.00" vaporized=""/>
    <tripinfo id="car_40" depart="114.00" departLane="w2A_0" departPos="5.10" departSpeed="0.00" departDelay="90.00" arrival="168.00" arrivalLane="A2e_1" arrivalPos="189.60" arrivalSpeed="13.60" duration="54.00" routeLength="394.90" waitingTime="1.00" waitingCount="1" stopTime="0.00" timeLoss="24.96" rerouteNo="0" devices="tripinfo_car_40" vType="typeCar" speedFactor="1.00" vaporized=""/>
    <tripinfo id="car_38" depart="109.00" departLane="w2A_0" departPos="5.10" departSpeed="0.00" departDelay="86.00" arrival="168.00" arrivalLane="A2e_0" arrivalPos="189.60" arrivalSpeed="13.58" duration="59.00" routeLength="394.90" waitingTime="4.00" waitingCount="1" stopTime="0.00" timeLoss="30.46" rerouteNo="0" devices="tripinfo_car_38" vType="typeCar" speedFactor="1.00" vaporized=""/>
    <tripinfo id="car_50" depart="106.00" departLane="e2A_0" departPos="5.10" departSpeed="0.00" departDelay="78.00" arrival="168.00" arrivalLane="A2w_0" arrivalPos="189.60" arrivalSpeed="13.60" duration="62.00" routeLength="394.90" waitingTime="8.00" waitingCount="1" stopTime="0.00" timeLoss="33.54" rerouteNo="0" devices="tripinfo_car_50" vType="typeCar" speedFactor="1.00" vaporized=""/>
    <tripinfo id="car_52" depart="111.00" departLane="e2A_0" departPos="5.10" departSpeed="0.00" departDelay="82.00" arrival="169.00" arrivalLane="A2w_1" arrivalPos="189.60" arrivalSpeed="13.60" duration="58.00" routeLength="394.90" waitingTime="3.00" waitingCount="1" stopTime="0.00" timeLoss="28.61" rerouteNo="0" devices="tripinfo_car_52" vType="typeCar" speedFactor="1.00" vaporized=""/>
    <tripinfo id="car_42" depart="120.00" departLane="w2A_0" departPos="5.10" departSpeed="0.00" departDelay="95.00" arrival="170.00" arrivalLane="A2e_1" arrivalPos="189.60" arrivalSpeed="13.88" duration="50.00" routeLength="394.90" waitingTime="0.00" waitingCount="0" stopTime="0.00" timeLoss="20.84" rerouteNo="0" devices="tripinfo_car_42" vType="typeCar" speedFactor="1.00" vaporized=""/>
    <tripinfo id="car_44" depart="125.00" departLane="w2A_0" departPos="5.10" departSpeed="0.00" departDelay="99.00" arrival="170.00" arrivalLane="A2e_0" arrivalPos="189.60" arrivalSpeed="13.61" duration="45.00" routeLength="394.90" waitingTime="0.00" waitingCount="0" stopTime="0.00" timeLoss="16.11" rerouteNo="0" devices="tripinfo_car_44" vType="typeCar" speedFactor="1.00" vaporized=""/>
    <tripinfo id="car_56" depart="121.00" departLane="e2A_0" departPos="5.10" departSpeed="0.00" departDelay="90.00" arrival="170.00" arrivalLane="A2w_1" arrivalPos="189.60" arrivalSpeed="13.78" duration="49.00" routeLength="394.90" waitingTime="0.00" waitingCount="0" stopTime="0.00" timeLoss="20.21" rerouteNo="0" devices="tripinfo_car_56" vType="typeCar" speedFactor="1.00" vaporized=""/>
    <tripinfo id="car_54" depart="116.00" departLane="e2A_0" departPos="5.10" departSpeed="0.00" departDelay="86.00" arrival="171.00" arrivalLane="A2w_0" arrivalPos="189.60" arrivalSpeed="13.58" duration="55.00" routeLength="394.90" waitingTime="0.00" waitingCount="0" stopTime="0.00" timeLoss="26.02" rerouteNo="0" devices="tripinfo_car_54" vType="typeCar" speedFactor="1.00" vaporized=""/>
    <tripinfo id="car_47" depart="130.00" departLane="w2A_0" departPos="5.10" departSpeed="0.00" departDelay="103.00" arrival="172.00" arrivalLane="A2e_0" arrivalPos="189.60" arrivalSpeed="13.52" duration="42.00" routeLength="394.90" waitingTime="0.00" waitingCount="0" stopTime="0.00" timeLoss="12.71" rerouteNo="0" devices="tripinfo_car_47" vType="typeCar" speedFactor="1.00" vaporized=""/>
    <tripinfo id="car_57" depart="126.00" departLane="e2A_0" departPos="5.10" departSpeed="0.00" departDelay="94.00" arrival="172.00" arrivalLane="A2w_1" arrivalPos="189.60" arrivalSpeed="13.81" duration="46.00" routeLength="394.90" waitingTime="0.00" waitingCount="0" stopTime="0.00" timeLoss="16.99" rerouteNo="0" devices="tripinfo_car_57" vType="typeCar" speedFactor="1.00" vaporized=""/>
    <tripinfo id="car_60" depart="132.00" departLane="e2A_0" departPos="5.10" departSpeed="0.00" departDelay="99.00" arrival="173.00" arrivalLane="A2w_0" arrivalPos="189.60" arrivalSpeed="13.86" duration="41.00" routeLength="394.90" waitingTime="0.00" waitingCount="0" stopTime="0.00" timeLoss="11.63" rerouteNo="0" devices="tripinfo_car_60" vType="typeCar" speedFactor="1.00" vaporized=""/>
    <tripinfo id="car_49" depart="135.00" departLane="w2A_0" departPos="5.10" departSpeed="0.00" departDelay="107.00" arrival="175.00" arrivalLane="A2e_0" arrivalPos="189.60" arrivalSpeed="13.76" duration="40.00" routeLength="394.90" waitingTime="0.00" waitingCount="0" stopTime="0.00" timeLoss="10.87" rerouteNo="0" devices="tripinfo_car_49" vType="typeCar" speedFactor="1.00" vaporized=""/>
    <tripinfo id="car_61" depart="137.00" departLane="e2A_0" departPos="5.10" departSpeed="0.00" departDelay="103.00" arrival="177.00" arrivalLane="A2w_0" arrivalPos="189.60" arrivalSpeed="13.59" duration="40.00" routeLength="394.90" waitingTime="0.00" waitingCount="0" stopTime="0.00" timeLoss="11.40" rerouteNo="0" devices="tripinfo_car_61" vType="typeCar" speedFactor="1.00" vaporized=""/>
    <tripinfo id="car_51" depart="140.00" departLane="w2A_0" departPos="5.10" departSpeed="0.00" departDelay="111.00" arrival="180.00" arrivalLane="A2e_0" arrivalPos="189.60" arrivalSpeed="13.69" duration="40.00" routeLength="394.90" waitingTime="0.00" waitingCount="0" stopTime="0.00" timeLoss="11.34" rerouteNo="0" devices="tripinfo_car_51" vType="typeCar" speedFactor="1.00" vaporized=""/>
    <tripinfo id="car_63" depart="142.00" departLane="e2A_0" departPos="5.10" departSpeed="0.00" departDelay="107.00" arrival="183.00" arrivalLane="A2w_0" arrivalPos="189.60" arrivalSpeed="13.66" duration="41.00" routeLength="394.90" waitingTime="0.00" waitingCount="0" stopTime="0.00" timeLoss="12.46" rerouteNo="0" devices="tripinfo_car_63" vType="typeCar" speedFactor="1.00" vaporized=""/>
    <tripinfo id="car_53" depart="145.00" departLane="w2A_0" departPos="5.10" departSpeed="0.00" departDelay="115.00" arrival="185.00" arrivalLane="A2e_0" arrivalPos="189.60" arrivalSpeed="13.75" duration="40.00" routeLength="394.90" waitingTime="0.00" waitingCount="0" stopTime="0.00" timeLoss="11.40" rerouteNo="0" devices="tripinfo_car_53" vType="typeCar" speedFactor="1.00" vaporized=""/>
    <tripinfo id="car_65" depart="147.00" departLane="e2A_0" departPos="5.10" departSpeed="0.00" departDelay="111.00" arrival="188.00" arrivalLane="A2w_0" arrivalPos="189.60" arrivalSpeed="13.50" duration="41.00" routeLength="394.90" waitingTime="0.00" waitingCount="0" stopTime="0.00" timeLoss="12.01" rerouteNo="0" devices="tripinfo_car_65" vType="typeCar" speedFactor="1.00" vaporized=""/>
    <tripinfo id="car_59" depart="150.00" departLane="w2A_0" departPos="5.10" departSpeed="0.00" departDelay="117.00" arrival="191.00" arrivalLane="A2e_0" arrivalPos="189.60" arrivalSpeed="13.82" duration="41.00" routeLength="394.90" waitingTime="0.00" waitingCount="0" stopTime="0.00" timeLoss="12.01" rerouteNo="0" devices="tripinfo_car_59" vType="typeCar" speedFactor="1.00" vaporized=""/>
    <tripinfo id="car_212" depart="116.00" departLane="n2A_0" departPos="5.10" departSpeed="0.00" departDelay="0.00" arrival="205.00" arrivalLane="A2s_1" arrivalPos="189.60" arrivalSpeed="13.87" duration="89.00" routeLength="394.90" waitingTime="37.00" waitingCount="1" stopTime="0.00" timeLoss="60.02" rerouteNo="0" devices="tripinfo_car_212" vType="typeCar" speedFactor="1.00" vaporized=""/>
    <tripinfo id="car_200" depart="110.00" departLane="n2A_0" departPos="5.10" departSpeed="0.00" departDelay="0.00" arrival="205.00" arrivalLane="A2s_0" arrivalPos="189.60" arrivalSpeed="13.88" duration="95.00" routeLength="394.90" waitingTime="43.00" waitingCount="1" stopTime="0.00" timeLoss="66.49" rerouteNo="0" devices="tripinfo_car_200" vType="typeCar" speedFactor="1.00" vaporized=""/>
    <tripinfo id="car_277" depart="148.00" departLane="s2A_0" departPos="5.10" departSpeed="0.00" departDelay="0.00" arrival="206.00" arrivalLane="A2n_1" arrivalPos="189.60" arrivalSpeed="13.54" duration="58.00" routeLength="394.90" waitingTime="4.00" waitingCount="1" stopTime="0.00" timeLoss="28.88" rerouteNo="0" devices="tripinfo_car_277" vType="typeCar" speedFactor="1.00" vaporized=""/>
    <tripinfo id="car_254" depart="137.00" departLane="s2A_0" departPos="5.10" departSpeed="0.00" departDelay="0.00" arrival="206.00" arrivalLane="A2n_0" arrivalPos="189.60" arrivalSpeed="13.59" duration="69.00" routeLength="394.90" waitingTime="17.00" waitingCount="1" stopTime="0.00" timeLoss="39.77" rerouteNo="0" devices="tripinfo_car_254" vType="typeCar" speedFactor="1.00" vaporized=""/>