<?xml version="1.0" encoding="UTF-8"?>

<!-- generated on Thu Sep  6 14:14:50 2018 by Eclipse SUMO GUI Version v0_32_0+2411-189ca3ff4b
<configuration xmlns:xsi="http://www.w3.org/2001/XMLSchema-instance" xsi:noNamespaceSchemaLocation="http://sumo.dlr.de/xsd/sumoConfiguration.xsd">

    <input>
        <net-file value="data/cross.net.xml"/>
        <route-files value="data/cross.rou.xml"/>
        <additional-files value="data/cross.det.xml"/>
    </input>

    <output>
        <emission-output value="emissions.xml"/>
        <tripinfo-output value="tripinfo.xml"/>
    </output>

    <time>
        <begin value="0"/>
    </time>

    <report>
        <verbose value="true"/>
        <no-step-log value="true"/>
    </report>

    <traci_server>
        <remote-port value="51681"/>
    </traci_server>

</configuration>
-->

<tripinfos xmlns:xsi="http://www.w3.org/2001/XMLSchema-instance" xsi:noNamespaceSchemaLocation="http://sumo.dlr.de/xsd/tripinfo_file.xsd">
    <tripinfo id="car_4" depart="2.00" departLane="n2A_0" departPos="5.10" departSpeed="0.00" departDelay="0.00" arrival="42.00" arrivalLane="A2s_0" arrivalPos="189.60" arrivalSpeed="13.69" duration="40.00" routeLength="394.90" waitingTime="0.00" waitingCount="0" stopTime="0.00" timeLoss="10.63" rerouteNo="0" devices="tripinfo_car_4" vType="typeCar" speedFactor="1.00" vaporized=""/>
    <tripinfo id="car_27" depart="14.00" departLane="s2A_0" departPos="5.10" departSpeed="0.00" departDelay="0.00" arrival="54.00" arrivalLane="A2n_0" arrivalPos="189.60" arrivalSpeed="13.82" duration="40.00" routeLength="394.90" waitingTime="0.00" waitingCount="0" stopTime="0.00" timeLoss="11.56" rerouteNo="0" devices="tripinfo_car_27" vType="typeCar" speedFactor="1.00" vaporized=""/>
    <tripinfo id="car_0" depart="0.00" departLane="w2A_0" departPos="5.10" departSpeed="0.00" departDelay="0.00" arrival="70.00" arrivalLane="A2e_0" arrivalPos="189.60" arrivalSpeed="13.86" duration="70.00" routeLength="394.90" waitingTime="18.00" waitingCount="1" stopTime="0.00" timeLoss="41.54" rerouteNo="0" devices="tripinfo_car_0" vType="typeCar" speedFactor="1.00" vaporized=""/>
    <tripinfo id="car_1" depart="0.00" departLane="e2A_0" departPos="5.10" departSpeed="0.00" departDelay="0.00" arrival="71.00" arrivalLane="A2w_0" arrivalPos="189.60" arrivalSpeed="13.64" duration="71.00" routeLength="394.90" waitingTime="18.00" waitingCount="1" stopTime="0.00" timeLoss="42.48" rerouteNo="0" devices="tripinfo_car_1" vType="typeCar" speedFactor="1.00" vaporized=""/>
    <tripinfo id="car_3" depart="5.00" departLane="e2A_0" departPos="5.10" departSpeed="0.00" departDelay="4.00" arrival="72.00" arrivalLane="A2w_1" arrivalPos="189.60" arrivalSpeed="13.65" duration="67.00" routeLength="394.90" waitingTime="13.00" waitingCount="1" stopTime="0.00" timeLoss="37.63" rerouteNo="0" devices="tripinfo_car_3" vType="typeCar" speedFactor="1.00" vaporized=""/>
    <tripinfo id="car_2" depart="5.00" departLane="w2A_0" departPos="5.10" departSpeed="0.00" departDelay="4.00" arrival="72.00" arrivalLane="A2e_0" arrivalPos="189.60" arrivalSpeed="13.62" duration="67.00" routeLength="394.90" waitingTime="13.00" waitingCount="1" stopTime="0.00" timeLoss="37.92" rerouteNo="0" devices="tripinfo_car_2" vType="typeCar" speedFactor="1.00" vaporized=""/>
    <tripinfo id="car_7" depart="15.00" departLane="e2A_0" departPos="5.10" departSpeed="0.00" departDelay="12.00" arrival="73.00" arrivalLane="A2w_1" arrivalPos="189.60" arrivalSpeed="13.66" duration="58.00" routeLength="394.90" waitingTime="4.00" waitingCount="1" stopTime="0.00" timeLoss="29.22" rerouteNo="0" devices="tripinfo_car_7" vType="typeCar" speedFactor="1.00" vaporized=""/>
    <tripinfo id="car_5" depart="10.00" departLane="e2A_0" departPos="5.10" departSpeed="0.00" departDelay="8.00" arrival="73.00" arrivalLane="A2w_0" arrivalPos="189.60" arrivalSpeed="13.63" duration="63.00" routeLength="394.90" waitingTime="9.00" waitingCount="1" stopTime="0.00" timeLoss="34.27" rerouteNo="0" devices="tripinfo_car_5" vType="typeCar" speedFactor="1.00" vaporized=""/>
    <tripinfo id="car_8" depart="15.00" departLane="w2A_0" departPos="5.10" departSpeed="0.00" departDelay="11.00" arrival="74.00" arrivalLane="A2e_1" arrivalPos="189.60" arrivalSpeed="13.86" duration="59.00" routeLength="394.90" waitingTime="5.00" waitingCount="1" stopTime="0.00" timeLoss="29.61" rerouteNo="0" devices="tripinfo_car_8" vType="typeCar" speedFactor="1.00" vaporized=""/>
    <tripinfo id="car_6" depart="10.00" departLane="w2A_0" departPos="5.10" departSpeed="0.00" departDelay="7.00" arrival="74.00" arrivalLane="A2e_0" arrivalPos="189.60" arrivalSpeed="13.85" duration="64.00" routeLength="394.90" waitingTime="9.00" waitingCount="1" stopTime="0.00" timeLoss="34.88" rerouteNo="0" devices="tripinfo_car_6" vType="typeCar" speedFactor="1.00" vaporized=""/>
    <tripinfo id="car_11" depart="25.00" departLane="e2A_0" departPos="5.10" departSpeed="0.00" departDelay="20.00" arrival="75.00" arrivalLane="A2w_1" arrivalPos="189.60" arrivalSpeed="13.82" duration="50.00" routeLength="394.90" waitingTime="0.00" waitingCount="0" stopTime="0.00" timeLoss="20.88" rerouteNo="0" devices="tripinfo_car_11" vType="typeCar" speedFactor="1.00" vaporized=""/>
    <tripinfo id="car_13" depart="25.00" departLane="w2A_0" departPos="5.10" departSpeed="0.00" departDelay="18.00" arrival="75.00" arrivalLane="A2e_1" arrivalPos="189.60" arrivalSpeed="13.74" duration="50.00" routeLength="394.90" waitingTime="0.00" waitingCount="0" stopTime="0.00" timeLoss="21.54" rerouteNo="0" devices="tripinfo_car_13" vType="typeCar" speedFactor="1.00" vaporized=""/>
    <tripinfo id="car_10" depart="20.00" departLane="w2A_0" departPos="5.10" departSpeed="0.00" departDelay="15.00" arrival="75.00" arrivalLane="A2e_0" arrivalPos="189.60" arrivalSpeed="13.49" duration="55.00" routeLength="394.90" waitingTime="0.00" waitingCount="0" stopTime="0.00" timeLoss="26.50" rerouteNo="0" devices="tripinfo_car_10" vType="typeCar" speedFactor="1.00" vaporized=""/>
    <tripinfo id="car_9" depart="20.00" departLane="e2A_0" departPos="5.10" departSpeed="0.00" departDelay="16.00" arrival="75.00" arrivalLane="A2w_0" arrivalPos="189.60" arrivalSpeed="13.88" duration="55.00" routeLength="394.90" waitingTime="0.00" waitingCount="0" stopTime="0.00" timeLoss="25.95" rerouteNo="0" devices="tripinfo_car_9" vType="typeCar" speedFactor="1.00" vaporized=""/>
    <tripinfo id="car_14" depart="35.00" departLane="e2A_0" departPos="5.10" departSpeed="0.00" departDelay="28.00" arrival="76.00" arrivalLane="A2w_1" arrivalPos="189.60" arrivalSpeed="13.85" duration="41.00" routeLength="394.90" waitingTime="0.00" waitingCount="0" stopTime="0.00" timeLoss="12.48" rerouteNo="0" devices="tripinfo_car_14" vType="typeCar" speedFactor="1.00" vaporized=""/>
    <tripinfo id="car_12" depart="30.00" departLane="e2A_0" departPos="5.10" departSpeed="0.00" departDelay="24.00" arrival="76.00" arrivalLane="A2w_0" arrivalPos="189.60" arrivalSpeed="13.58" duration="46.00" routeLength="394.90" waitingTime="0.00" waitingCount="0" stopTime="0.00" timeLoss="17.57" rerouteNo="0" devices="tripinfo_car_12" vType="typeCar" speedFactor="1.00" vaporized=""/>
    <tripinfo id="car_15" depart="30.00" departLane="w2A_0" departPos="5.10" departSpeed="0.00" departDelay="22.00" arrival="77.00" arrivalLane="A2e_1" arrivalPos="189.60" arrivalSpeed="13.77" duration="47.00" routeLength="394.90" waitingTime="0.00" waitingCount="0" stopTime="0.00" timeLoss="18.21" rerouteNo="0" devices="tripinfo_car_15" vType="typeCar" speedFactor="1.00" vaporized=""/>
    <tripinfo id="car_17" depart="35.00" departLane="w2A_0" departPos="5.10" departSpeed="0.00" departDelay="26.00" arrival="77.00" arrivalLane="A2e_0" arrivalPos="189.60" arrivalSpeed="13.72" duration="42.00" routeLength="394.90" waitingTime="0.00" waitingCount="0" stopTime="0.00" timeLoss="13.17" rerouteNo="0" devices="tripinfo_car_17" vType="typeCar" speedFactor="1.00" vaporized=""/>
    <tripinfo id="car_19" depart="40.00" departLane="w2A_0" departPos="5.10" departSpeed="0.00" departDelay="30.00" arrival="80.00" arrivalLane="A2e_0" arrivalPos="189.60" arrivalSpeed="13.81" duration="40.00" routeLength="394.90" waitingTime="0.00" waitingCount="0" stopTime="0.00" timeLoss="11.21" rerouteNo="0" devices="tripinfo_car_19" vType="typeCar" speedFactor="1.00" vaporized=""/>
    <tripinfo id="car_16" depart="40.00" departLane="e2A_0" departPos="5.10" departSpeed="0.00" departDelay="32.00" arrival="80.00" arrivalLane="A2w_0" arrivalPos="189.60" arrivalSpeed="13.66" duration="40.00" routeLength="394.90" waitingTime="0.00" waitingCount="0" stopTime="0.00" timeLoss="11.30" rerouteNo="0" devices="tripinfo_car_16" vType="typeCar" speedFactor="1.00" vaporized=""/>
    <tripinfo id="car_21" depart="45.00" departLane="w2A_0" departPos="5.10" departSpeed="0.00" departDelay="34.00" arrival="85.00" arrivalLane="A2e_0" arrivalPos="189.60" arrivalSpeed="13.89" duration="40.00" routeLength="394.90" waitingTime="0.00" waitingCount="0" stopTime="0.00" timeLoss="10.75" rerouteNo="0" devices="tripinfo_car_21" vType="typeCar" speedFactor="1.00" vaporized=""/>
    <tripinfo id="car_18" depart="45.00" departLane="e2A_0" departPos="5.10" departSpeed="0.00" departDelay="36.00" arrival="85.00" arrivalLane="A2w_0" arrivalPos="189.60" arrivalSpeed="13.70" duration="40.00" routeLength="394.90" waitingTime="0.00" waitingCount="0" stopTime="0.00" timeLoss="11.40" rerouteNo="0" devices="tripinfo_car_18" vType="typeCar" speedFactor="1.00" vaporized=""/>
    <tripinfo id="car_23" depart="50.00" departLane="w2A_0" departPos="5.10" departSpeed="0.00" departDelay="38.00" arrival="90.00" arrivalLane="A2e_0" arrivalPos="189.60" arrivalSpeed="13.86" duration="40.00" routeLength="394.90" waitingTime="0.00" waitingCount="0" stopTime="0.00" timeLoss="10.65" rerouteNo="0" devices="tripinfo_car_23" vType="typeCar" speedFactor="1.00" vaporized=""/>
    <tripinfo id="car_20" depart="50.00" departLane="e2A_0" departPos="5.10" departSpeed="0.00" departDelay="40.00" arrival="91.00" arrivalLane="A2w_0" arrivalPos="189.60" arrivalSpeed="13.75" duration="41.00" routeLength="394.90" waitingTime="0.00" waitingCount="0" stopTime="0.00" timeLoss="12.13" rerouteNo="0" devices="tripinfo_car_20" vType="typeCar" speedFactor="1.00" vaporized=""/>
    <tripinfo id="car_22" depart="56.00" departLane="e2A_0" departPos="5.10" departSpeed="0.00" departDelay="45.00" arrival="95.00" arrivalLane="A2w_0" arrivalPos="189.60" arrivalSpeed="13.52" duration="39.00" routeLength="394.90" waitingTime="0.00" waitingCount="0" stopTime="0.00" timeLoss="10.35" rerouteNo="0" devices="tripinfo_car_22" vType="typeCar" speedFactor="1.00" vaporized=""/>
    <tripinfo id="car_25" depart="55.00" departLane="w2A_0" departPos="5.10" departSpeed="0.00" departDelay="42.00" arrival="96.00" arrivalLane="A2e_0" arrivalPos="189.60" arrivalSpeed="13.86" duration="41.00" routeLength="394.90" waitingTime="0.00" waitingCount="0" stopTime="0.00" timeLoss="12.16" rerouteNo="0" devices="tripinfo_car_25" vType="typeCar" speedFactor="1.00" vaporized=""/>
    <tripinfo id="car_29" depart="60.00" departLane="w2A_0" departPos="5.10" departSpeed="0.00" departDelay="45.00" arrival="100.00" arrivalLane="A2e_0" arrivalPos="189.60" arrivalSpeed="13.51" duration="40.00" routeLength="394.90" waitingTime="0.00" waitingCount="0" stopTime="0.00" timeLoss="11.09" rerouteNo="0" devices="tripinfo_car_29" vType="typeCar" speedFactor="1.00" vaporized=""/>
    <tripinfo id="car_24" depart="61.00" departLane="e2A_0" departPos="5.10" departSpeed="0.00" departDelay="49.00" arrival="102.00" arrivalLane="A2w_0" arrivalPos="189.60" arrivalSpeed="13.88" duration="41.00" routeLength="394.90" waitingTime="0.00" waitingCount="0" stopTime="0.00" timeLoss="11.78" rerouteNo="0" devices="tripinfo_car_24" vType="typeCar" speedFactor="1.00" vaporized=""/>
    <tripinfo id="car_98" depart="51.00" departLane="s2A_0" departPos="5.10" departSpeed="0.00" departDelay="0.00" arrival="116.00" arrivalLane="A2n_1" arrivalPos="189.60" arrivalSpeed="13.71" duration="65.00" routeLength="394.90" waitingTime="12.00" waitingCount="1" stopTime="0.00" timeLoss="36.34" rerouteNo="0" devices="tripinfo_car_98" vType="typeCar" speedFactor="1.00" vaporized=""/>
    <tripinfo id="car_76" depart="40.00" departLane="s2A_0" departPos="5.10" departSpeed="0.00" departDelay="0.00" arrival="116.00" arrivalLane="A2n_0" arrivalPos="189.60" arrivalSpeed="13.57" duration="76.00" routeLength="394.90" waitingTime="22.00" waitingCount="1" stopTime="0.00" timeLoss="47.42" rerouteNo="0" devices="tripinfo_car_76" vType="typeCar" speedFactor="1.00" vaporized=""/>
    <tripinfo id="car_49" depart="28.00" departLane="n2A_0" departPos="5.10" departSpeed="0.00" departDelay="2.00" arrival="116.00" arrivalLane="A2s_1" arrivalPos="189.60" arrivalSpeed="13.87" duration="88.00" routeLength="394.90" waitingTime="33.00" waitingCount="1" stopTime="0.00" timeLoss="58.74" rerouteNo="0" devices="tripinfo_car_49" vType="typeCar" speedFactor="1.00" vaporized=""/>
    <tripinfo id="car_42" depart="23.00" departLane="n2A_0" departPos="5.10" departSpeed="0.00" departDelay="0.00" arrival="117.00" arrivalLane="A2s_0" arrivalPos="189.60" arrivalSpeed="13.61" duration="94.00" routeLength="394.90" waitingTime="39.00" waitingCount="1" stopTime="0.00" timeLoss="64.78" rerouteNo="0" devices="tripinfo_car_42" vType="typeCar" speedFactor="1.00" vaporized=""/>
    <tripinfo id="car_75" depart="40.00" departLane="n2A_0" departPos="5.10" departSpeed="0.00" departDelay="0.00" arrival="117.00" arrivalLane="A2s_1" arrivalPos="189.60" arrivalSpeed="13.50" duration="77.00" routeLength="394.90" waitingTime="22.00" waitingCount="1" stopTime="0.00" timeLoss="48.45" rerouteNo="0" devices="tripinfo_car_75" vType="typeCar" speedFactor="1.00" vaporized=""/>
    <tripinfo id="car_117" depart="61.00" departLane="s2A_0" departPos="5.10" departSpeed="0.00" departDelay="1.00" arrival="118.00" arrivalLane="A2n_1" arrivalPos="189.60" arrivalSpeed="13.57" duration="57.00" routeLength="394.90" waitingTime="2.00" waitingCount="2" stopTime="0.00" timeLoss="27.97" rerouteNo="0" devices="tripinfo_car_117" vType="typeCar" speedFactor="1.00" vaporized=""/>
    <tripinfo id="car_62" depart="34.00" departLane="n2A_0" departPos="5.10" departSpeed="0.00" departDelay="1.00" arrival="118.00" arrivalLane="A2s_0" arrivalPos="189.60" arrivalSpeed="13.84" duration="84.00" routeLength="394.90" waitingTime="30.00" waitingCount="1" stopTime="0.00" timeLoss="55.41" rerouteNo="0" devices="tripinfo_car_62" vType="typeCar" speedFactor="1.00" vaporized=""/>
    <tripinfo id="car_105" depart="56.00" departLane="s2A_0" departPos="5.10" departSpeed="0.00" departDelay="2.00" arrival="119.00" arrivalLane="A2n_0" arrivalPos="189.60" arrivalSpeed="13.70" duration="63.00" routeLength="394.90" waitingTime="8.00" waitingCount="1" stopTime="0.00" timeLoss="33.81" rerouteNo="0" devices="tripinfo_car_105" vType="typeCar" speedFactor="1.00" vaporized=""/>
    <tripinfo id="car_122" depart="65.00" departLane="n2A_0" departPos="5.10" departSpeed="0.00" departDelay="3.00" arrival="119.00" arrivalLane="A2s_1" arrivalPos="189.60" arrivalSpeed="13.70" duration="54.00" routeLength="394.90" waitingTime="0.00" waitingCount="0" stopTime="0.00" timeLoss="25.09" rerouteNo="0" devices="tripinfo_car_122" vType="typeCar" speedFactor="1.00" vaporized=""/>
    <tripinfo id="car_140" depart="72.00" departLane="s2A_0" departPos="5.10" departSpeed="0.00" departDelay="2.00" arrival="120.00" arrivalLane="A2n_1" arrivalPos="189.60" arrivalSpeed="13.62" duration="48.00" routeLength="394.90" waitingTime="0.00" waitingCount="0" stopTime="0.00" timeLoss="19.45" rerouteNo="0" devices="tripinfo_car_140" vType="typeCar" speedFactor="1.00" vaporized=""/>
    <tripinfo id="car_116" depart="60.00" departLane="n2A_0" departPos="5.10" departSpeed="0.00" departDelay="0.00" arrival="120.00" arrivalLane="A2s_0" arrivalPos="189.60" arrivalSpeed="13.62" duration="60.00" routeLength="394.90" waitingTime="6.00" waitingCount="1" stopTime="0.00" timeLoss="31.27" rerouteNo="0" devices="tripinfo_car_116" vType="typeCar" speedFactor="1.00" vaporized=""/>
    <tripinfo id="car_133" depart="67.00" departLane="s2A_0" departPos="5.10" departSpeed="0.00" departDelay="0.00" arrival="121.00" arrivalLane="A2n_0" arrivalPos="189.60" arrivalSpeed="13.60" duration="54.00" routeLength="394.90" waitingTime="0.00" waitingCount="0" stopTime="0.00" timeLoss="24.64" rerouteNo="0" devices="tripinfo_car_133" vType="typeCar" speedFactor="1.00" vaporized=""/>
    <tripinfo id="car_138" depart="75.00" departLane="n2A_0" departPos="5.10" departSpeed="0.00" departDelay="6.00" arrival="121.00" arrivalLane="A2s_1" arrivalPos="189.60" arrivalSpeed="13.66" duration="46.00" routeLength="394.90" waitingTime="0.00" waitingCount="0" stopTime="0.00" timeLoss="17.05" rerouteNo="0" devices="tripinfo_car_138" vType="typeCar" speedFactor="1.00" vaporized=""/>
    <tripinfo id="car_149" depart="77.00" departLane="s2A_0" departPos="5.10" departSpeed="0.00" departDelay="1.00" arrival="122.00" arrivalLane="A2n_1" arrivalPos="189.60" arrivalSpeed="13.75" duration="45.00" routeLength="394.90" waitingTime="0.00" waitingCount="0" stopTime="0.00" timeLoss="16.07" rerouteNo="0" devices="tripinfo_car_149" vType="typeCar" speedFactor="1.00" vaporized=""/>
    <tripinfo id="car_126" depart="70.00" departLane="n2A_0" departPos="5.10" departSpeed="0.00" departDelay="6.00" arrival="122.00" arrivalLane="A2s_0" arrivalPos="189.60" arrivalSpeed="13.77" duration="52.00" routeLength="394.90" waitingTime="0.00" waitingCount="0" stopTime="0.00" timeLoss="23.07" rerouteNo="0" devices="tripinfo_car_126" vType="typeCar" speedFactor="1.00" vaporized=""/>
    <tripinfo id="car_157" depart="80.00" departLane="n2A_0" departPos="5.10" departSpeed="0.00" departDelay="0.00" arrival="123.00" arrivalLane="A2s_1" arrivalPos="189.60" arrivalSpeed="13.82" duration="43.00" routeLength="394.90" waitingTime="0.00" waitingCount="0" stopTime="0.00" timeLoss="13.65" rerouteNo="0" devices="tripinfo_car_157" vType="typeCar" speedFactor="1.00" vaporized=""/>
    <tripinfo id="car_160" depart="85.00" departLane="n2A_0" departPos="5.10" departSpeed="0.00" departDelay="3.00" arrival="126.00" arrivalLane="A2s_0" arrivalPos="189.60" arrivalSpeed="13.58" duration="41.00" routeLength="394.90" waitingTime="0.00" waitingCount="0" stopTime="0.00" timeLoss="11.68" rerouteNo="0" devices="tripinfo_car_160" vType="typeCar" speedFactor="1.00" vaporized=""/>
    <tripinfo id="car_177" depart="91.00" departLane="n2A_0" departPos="5.10" departSpeed="0.00" departDelay="0.00" arrival="131.00" arrivalLane="A2s_0" arrivalPos="189.60" arrivalSpeed="13.60" duration="40.00" routeLength="394.90" waitingTime="0.00" waitingCount="0" stopTime="0.00" timeLoss="10.95" rerouteNo="0" devices="tripinfo_car_177" vType="typeCar" speedFactor="1.00" vaporized=""/>
    <tripinfo id="car_186" depart="95.00" departLane="s2A_0" departPos="5.10" departSpeed="0.00" departDelay="0.00" arrival="135.00" arrivalLane="A2n_0" arrivalPos="189.60" arrivalSpeed="13.63" duration="40.00" routeLength="394.90" waitingTime="0.00" waitingCount="0" stopTime="0.00" timeLoss="11.01" rerouteNo="0" devices="tripinfo_car_186" vType="typeCar" speedFactor="1.00" vaporized=""/>
    <tripinfo id="car_199" depart="102.00" departLane="n2A_0" departPos="5.10" departSpeed="0.00" departDelay="0.00" arrival="143.00" arrivalLane="A2s_0" arrivalPos="189.60" arrivalSpeed="13.54" duration="41.00" routeLength="394.90" waitingTime="0.00" waitingCount="0" stopTime="0.00" timeLoss="11.84" rerouteNo="0" devices="tripinfo_car_199" vType="typeCar" speedFactor="1.00" vaporized=""/>
    <tripinfo id="car_202" depart="107.00" departLane="n2A_0" departPos="5.10" departSpeed="0.00" departDelay="4.00" arrival="149.00" arrivalLane="A2s_0" arrivalPos="189.60" arrivalSpeed="13.88" duration="42.00" routeLength="394.90" waitingTime="0.00" waitingCount="0" stopTime="0.00" timeLoss="12.76" rerouteNo="0" devices="tripinfo_car_202" vType="typeCar" speedFactor="1.00" vaporized=""/>
    <tripinfo id="car_28" depart="71.00" departLane="e2A_0" departPos="5.10" departSpeed="0.00" departDelay="57.00" arrival="160.00" arrivalLane="A2w_0" arrivalPos="189.60" arrivalSpeed="13.56" duration="89.00" routeLength="394.90" waitingTime="36.00" waitingCount="1" stopTime="0.00" timeLoss="60.29" rerouteNo="0" devices="tripinfo_car_28" vType="typeCar" speedFactor="1.00" vaporized=""/>
    <tripinfo id="car_32" depart="70.00" departLane="w2A_0" departPos="5.10" departSpeed="0.00" departDelay="53.00" arrival="160.00" arrivalLane="A2e_1" arrivalPos="189.60" arrivalSpeed="13.52" duration="90.00" routeLength="394.90" waitingTime="39.00" waitingCount="2" stopTime="0.00" timeLoss="61.53" rerouteNo="0" devices="tripinfo_car_32" vType="typeCar" speedFactor="1.00" vaporized=""/>
    <tripinfo id="car_31" depart="65.00" departLane="w2A_0" departPos="5.10" departSpeed="0.00" departDelay="49.00" arrival="161.00" arrivalLane="A2e_0" arrivalPos="189.60" arrivalSpeed="13.60" duration="96.00" routeLength="394.90" waitingTime="43.00" waitingCount="1" stopTime="0.00" timeLoss="66.83" rerouteNo="0" devices="tripinfo_car_31" vType="typeCar" speedFactor="1.00" vaporized=""/>
    <tripinfo id="car_26" depart="66.00" departLane="e2A_0" departPos="5.10" departSpeed="0.00" departDelay="53.00" arrival="162.00" arrivalLane="A2w_0" arrivalPos="189.60" arrivalSpeed="13.50" duration="96.00" routeLength="394.90" waitingTime="41.00" waitingCount="1" stopTime="0.00" timeLoss="66.97" rerouteNo="0" devices="tripinfo_car_26" vType="typeCar" speedFactor="1.00" vaporized=""/>
    <tripinfo id="car_36" depart="81.00" departLane="w2A_0" departPos="5.10" departSpeed="0.00" departDelay="62.00" arrival="162.00" arrivalLane="A2e_1" arrivalPos="189.60" arrivalSpeed="13.88" duration="81.00" routeLength="394.90" waitingTime="28.00" waitingCount="1" stopTime="0.00" timeLoss="52.28" rerouteNo="0" devices="tripinfo_car_36" vType="typeCar" speedFactor="1.00" vaporized=""/>
    <tripinfo id="car_33" depart="81.00" departLane="e2A_0" departPos="5.10" departSpeed="0.00" departDelay="64.00" arrival="163.00" arrivalLane="A2w_1" arrivalPos="189.60" arrivalSpeed="13.66" duration="82.00" routeLength="394.90" waitingTime="27.00" waitingCount="1" stopTime="0.00" timeLoss="52.89" rerouteNo="0" devices="tripinfo_car_33" vType="typeCar" speedFactor="1.00" vaporized=""/>
    <tripinfo id="car_34" depart="76.00" departLane="w2A_0" departPos="5.10" departSpeed="0.00" departDelay="58.00" arrival="164.00" arrivalLane="A2e_0" arrivalPos="189.60" arrivalSpeed="13.50" duration="88.00" routeLength="394.90" waitingTime="34.00" waitingCount="1" stopTime="0.00" timeLoss="58.65" rerouteNo="0" devices="tripinfo_car_34" vType="typeCar" speedFactor="1.00" vaporized=""/>
    <tripinfo id="car_30" depart="76.00" departLane="e2A_0" departPos="5.10" departSpeed="0.00" departDelay="61.00" arrival="164.00" arrivalLane="A2w_0" arrivalPos="189.60" arrivalSpeed="13.62" duration="88.00" routeLength="394.90" waitingTime="34.00" waitingCount="1" stopTime="0.00" timeLoss="58.60" rerouteNo="0" devices="tripinfo_car_30" vType="typeCar" speedFactor="1.00" vaporized=""/>
    <tripinfo id="car_39" depart="91.00" departLane="w2A_0" departPos="5.10" departSpeed="0.00" departDelay="70.00" arrival="164.00" arrivalLane="A2e_1" arrivalPos="189.60" arrivalSpeed="13.57" duration="73.00" routeLength="394.90" waitingTime="19.00" waitingCount="1" stopTime="0.00" timeLoss="44.03" rerouteNo="0" devices="tripinfo_car_39" vType="typeCar" speedFactor="1.00" vaporized=""/>
    <tripinfo id="car_35" depart="86.00" departLane="e2A_0" departPos="5.10" departSpeed="0.00" departDelay="68.00" arrival="165.00" arrivalLane="A2w_0" arrivalPos="189.60" arrivalSpeed="13.67" duration="79.00" routeLength="394.90" waitingTime="25.00" waitingCount="1" stopTime="0.00" timeLoss="50.29" rerouteNo="0" devices="tripinfo_car_35" vType="typeCar" speedFactor="1.00" vaporized=""/>
    <tripinfo id="car_37" depart="86.00" departLane="w2A_0" departPos="5.10" departSpeed="0.00" departDelay="66.00" arrival="166.00" arrivalLane="A2e_0" arrivalPos="189.60" arrivalSpeed="13.79" duration="80.00" routeLength="394.90" waitingTime="25.00" waitingCount="1" stopTime="0.00" timeLoss="50.91" rerouteNo="0" devices="tripinfo_car_37" vType="typeCar" speedFactor="1.00" vaporized=""/>
    <tripinfo id="car_38" depart="91.00" departLane="e2A_0" departPos="5.10" departSpeed="0.00" departDelay="71.00" arrival="166.00" arrivalLane="A2w_1" arrivalPos="189.60" arrivalSpeed="13.81" duration="75.00" routeLength="394.90" waitingTime="18.00" waitingCount="1" stopTime="0.00" timeLoss="45.68" rerouteNo="0" devices="tripinfo_car_38" vType="typeCar" speedFactor="1.00" vaporized=""/>
    <tripinfo id="car_43" depart="101.00" departLane="w2A_0" departPos="5.10" departSpeed="0.00" departDelay="78.00" arrival="166.00" arrivalLane="A2e_1" arrivalPos="189.60" arrivalSpeed="13.62" duration="65.00" routeLength="394.90" waitingTime="9.00" waitingCount="1" stopTime="0.00" timeLoss="36.09" rerouteNo="0" devices="tripinfo_car_43" vType="typeCar" speedFactor="1.00" vaporized=""/>
    <tripinfo id="car_40" depart="96.00" departLane="e2A_0" departPos="5.10" departSpeed="0.00" departDelay="75.00" arrival="167.00" arrivalLane="A2w_0" arrivalPos="189.60" arrivalSpeed="13.58" duration="71.00" routeLength="394.90" waitingTime="16.00" waitingCount="1" stopTime="0.00" timeLoss="41.96" rerouteNo="0" devices="tripinfo_car_40" vType="typeCar" speedFactor="1.00" vaporized=""/>
    <tripinfo id="car_44" depart="101.00" departLane="e2A_0" departPos="5.10" departSpeed="0.00" departDelay="78.00" arrival="167.00" arrivalLane="A2w_1" arrivalPos="189.60" arrivalSpeed="13.69" duration="66.00" routeLength="394.90" waitingTime="10.00" waitingCount="1" stopTime="0.00" timeLoss="37.46" rerouteNo="0" devices="tripinfo_car_44" vType="typeCar" speedFactor="1.00" vaporized=""/>
    <tripinfo id="car_41" depart="96.00" departLane="w2A_0" departPos="5.10" departSpeed="0.00" departDelay="74.00" arrival="168.00" arrivalLane="A2e_0" arrivalPos="189.60" arrivalSpeed="13.71" duration="72.00" routeLength="394.90" waitingTime="16.00" waitingCount="1" stopTime="0.00" timeLoss="43.50" rerouteNo="0" devices="tripinfo_car_41" vType="typeCar" speedFactor="1.00" vaporized=""/>
    <tripinfo id="car_47" depart="111.00" departLane="w2A_0" departPos="5.10" departSpeed="0.00" departDelay="86.00" arrival="168.00" arrivalLane="A2e_1" arrivalPos="189.60" arrivalSpeed="13.71" duration="57.00" routeLength="394.90" waitingTime="2.00" waitingCount="1" stopTime="0.00" timeLoss="28.24" rerouteNo="0" devices="tripinfo_car_47" vType="typeCar" speedFactor="1.00" vaporized=""/>
    <tripinfo id="car_46" depart="106.00" departLane="e2A_0" departPos="5.10" departSpeed="0.00" departDelay="82.00" arrival="169.00" arrivalLane="A2w_0" arrivalPos="189.60" arrivalSpeed="13.79" duration="63.00" routeLength="394.90" waitingTime="7.00" waitingCount="1" stopTime="0.00" timeLoss="34.02" rerouteNo="0" devices="tripinfo_car_46" vType="typeCar" speedFactor="1.00" vaporized=""/>
    <tripinfo id="car_48" depart="111.00" departLane="e2A_0" departPos="5.10" departSpeed="0.00" departDelay="86.00" arrival="169.00" arrivalLane="A2w_1" arrivalPos="189.60" arrivalSpeed="13.77" duration="58.00" routeLength="394.90" waitingTime="4.00" waitingCount="1" stopTime="0.00" timeLoss="29.34" rerouteNo="0" devices="tripinfo_car_48" vType="typeCar" speedFactor="1.00" vaporized=""/>
    <tripinfo id="car_52" depart="121.00" departLane="w2A_0" departPos="5.10" departSpeed="0.00" departDelay="94.00" arrival="170.00" arrivalLane="A2e_1" arrivalPos="189.60" arrivalSpeed="13.71" duration="49.00" routeLength="394.90" waitingTime="0.00" waitingCount="0" stopTime="0.00" timeLoss="20.55" rerouteNo="0" devices="tripinfo_car_52" vType="typeCar" speedFactor="1.00" vaporized=""/>
    <tripinfo id="car_45" depart="106.00" departLane="w2A_0" departPos="5.10" departSpeed="0.00" departDelay="82.00" arrival="171.00" arrivalLane="A2e_0" arrivalPos="189.60" arrivalSpeed="13.50" duration="65.00" routeLength="394.90" waitingTime="8.00" waitingCount="1" stopTime="0.00" timeLoss="35.94" rerouteNo="0" devices="tripinfo_car_45" vType="typeCar" speedFactor="1.00" vaporized=""/>
    <tripinfo id="car_51" depart="116.00" departLane="e2A_0" departPos="5.10" departSpeed="0.00" departDelay="90.00" arrival="171.00" arrivalLane="A2w_0" arrivalPos="189.60" arrivalSpeed="13.66" duration="55.00" routeLength="394.90" waitingTime="0.00" waitingCount="0" stopTime="0.00" timeLoss="25.77" rerouteNo="0" devices="tripinfo_car_51" vType="typeCar" speedFactor="1.00" vaporized=""/>
    <tripinfo id="car_53" depart="121.00" departLane="e2A_0" departPos="5.10" departSpeed="0.00" departDelay="94.00" arrival="171.00" arrivalLane="A2w_1" arrivalPos="189.60" arrivalSpeed="13.63" duration="50.00" routeLength="394.90" waitingTime="0.00" waitingCount="0" stopTime="0.00" timeLoss="20.97" rerouteNo="0" devices="tripinfo_car_53" vType="typeCar" speedFactor="1.00" vaporized=""/>
    <tripinfo id="car_50" depart="116.00" departLane="w2A_0" departPos="5.10" departSpeed="0.00" departDelay="90.00" arrival="172.00" arrivalLane="A2e_0" arrivalPos="189.60" arrivalSpeed="13.80" duration="56.00" routeLength="394.90" waitingTime="0.00" waitingCount="0" stopTime="0.00" timeLoss="27.51" rerouteNo="0" devices="tripinfo_car_50" vType="typeCar" speedFactor="1.00" vaporized=""/>
    <tripinfo id="car_55" depart="126.00" departLane="e2A_0" departPos="5.10" departSpeed="0.00" departDelay="98.00" arrival="172.00" arrivalLane="A2w_0" arrivalPos="189.60" arrivalSpeed="13.77" duration="46.00" routeLength="394.90" waitingTime="0.00" waitingCount="0" stopTime="0.00" timeLoss="17.38" rerouteNo="0" devices="tripinfo_car_55" vType="typeCar" speedFactor="1.00" vaporized=""/>