<?xml version="1.0" encoding="UTF-8"?>

<!-- generated on Thu Sep  6 14:59:00 2018 by Eclipse SUMO GUI Version v0_32_0+2411-189ca3ff4b
<configuration xmlns:xsi="http://www.w3.org/2001/XMLSchema-instance" xsi:noNamespaceSchemaLocation="http://sumo.dlr.de/xsd/sumoConfiguration.xsd">

    <input>
        <net-file value="data/cross.net.xml"/>
        <route-files value="data/cross.rou.xml"/>
        <additional-files value="data/cross.det.xml"/>
    </input>

    <output>
        <tripinfo-output value="tripinfo.xml"/>
    </output>

    <time>
        <begin value="0"/>
    </time>

    <report>
        <verbose value="true"/>
        <no-step-log value="true"/>
    </report>

    <traci_server>
        <remote-port value="52165"/>
    </traci_server>

</configuration>
-->

<tripinfos xmlns:xsi="http://www.w3.org/2001/XMLSchema-instance" xsi:noNamespaceSchemaLocation="http://sumo.dlr.de/xsd/tripinfo_file.xsd">
    <tripinfo id="car_9" depart="6.00" departLane="n2A_0" departPos="5.10" departSpeed="0.00" departDelay="0.00" arrival="47.00" arrivalLane="A2s_0" arrivalPos="189.60" arrivalSpeed="13.68" duration="41.00" routeLength="394.90" waitingTime="0.00" waitingCount="0" stopTime="0.00" timeLoss="11.88" rerouteNo="0" devices="tripinfo_car_9" vType="typeCar" speedFactor="1.00" vaporized=""/>
    <tripinfo id="car_22" depart="13.00" departLane="n2A_0" departPos="5.10" departSpeed="0.00" departDelay="0.00" arrival="53.00" arrivalLane="A2s_0" arrivalPos="189.60" arrivalSpeed="13.61" duration="40.00" routeLength="394.90" waitingTime="0.00" waitingCount="0" stopTime="0.00" timeLoss="11.33" rerouteNo="0" devices="tripinfo_car_22" vType="typeCar" speedFactor="1.00" vaporized=""/>
    <tripinfo id="car_23" depart="13.00" departLane="s2A_0" departPos="5.10" departSpeed="0.00" departDelay="0.00" arrival="54.00" arrivalLane="A2n_0" arrivalPos="189.60" arrivalSpeed="13.78" duration="41.00" routeLength="394.90" waitingTime="0.00" waitingCount="0" stopTime="0.00" timeLoss="11.59" rerouteNo="0" devices="tripinfo_car_23" vType="typeCar" speedFactor="1.00" vaporized=""/>
    <tripinfo id="car_31" depart="18.00" departLane="n2A_0" departPos="5.10" departSpeed="0.00" departDelay="1.00" arrival="59.00" arrivalLane="A2s_0" arrivalPos="189.60" arrivalSpeed="13.65" duration="41.00" routeLength="394.90" waitingTime="0.00" waitingCount="0" stopTime="0.00" timeLoss="12.20" rerouteNo="0" devices="tripinfo_car_31" vType="typeCar" speedFactor="1.00" vaporized=""/>
    <tripinfo id="car_3" depart="5.00" departLane="e2A_0" departPos="5.10" departSpeed="0.00" departDelay="4.00" arrival="70.00" arrivalLane="A2w_1" arrivalPos="189.60" arrivalSpeed="13.69" duration="65.00" routeLength="394.90" waitingTime="14.00" waitingCount="1" stopTime="0.00" timeLoss="36.24" rerouteNo="0" devices="tripinfo_car_3" vType="typeCar" speedFactor="1.00" vaporized=""/>
    <tripinfo id="car_1" depart="0.00" departLane="e2A_0" departPos="5.10" departSpeed="0.00" departDelay="0.00" arrival="70.00" arrivalLane="A2w_0" arrivalPos="189.60" arrivalSpeed="13.77" duration="70.00" routeLength="394.90" waitingTime="17.00" waitingCount="1" stopTime="0.00" timeLoss="40.88" rerouteNo="0" devices="tripinfo_car_1" vType="typeCar" speedFactor="1.00" vaporized=""/>
    <tripinfo id="car_2" depart="5.00" departLane="w2A_0" departPos="5.10" departSpeed="0.00" departDelay="4.00" arrival="72.00" arrivalLane="A2e_1" arrivalPos="189.60" arrivalSpeed="13.51" duration="67.00" routeLength="394.90" waitingTime="12.00" waitingCount="1" stopTime="0.00" timeLoss="38.02" rerouteNo="0" devices="tripinfo_car_2" vType="typeCar" speedFactor="1.00" vaporized=""/>
    <tripinfo id="car_0" depart="0.00" departLane="w2A_0" departPos="5.10" departSpeed="0.00" departDelay="0.00" arrival="72.00" arrivalLane="A2e_0" arrivalPos="189.60" arrivalSpeed="13.81" duration="72.00" routeLength="394.90" waitingTime="18.00" waitingCount="1" stopTime="0.00" timeLoss="42.93" rerouteNo="0" devices="tripinfo_car_0" vType="typeCar" speedFactor="1.00" vaporized=""/>
    <tripinfo id="car_7" depart="15.00" departLane="e2A_0" departPos="5.10" departSpeed="0.00" departDelay="12.00" arrival="73.00" arrivalLane="A2w_1" arrivalPos="189.60" arrivalSpeed="13.50" duration="58.00" routeLength="394.90" waitingTime="4.00" waitingCount="1" stopTime="0.00" timeLoss="29.55" rerouteNo="0" devices="tripinfo_car_7" vType="typeCar" speedFactor="1.00" vaporized=""/>
    <tripinfo id="car_5" depart="10.00" departLane="e2A_0" departPos="5.10" departSpeed="0.00" departDelay="8.00" arrival="73.00" arrivalLane="A2w_0" arrivalPos="189.60" arrivalSpeed="13.88" duration="63.00" routeLength="394.90" waitingTime="9.00" waitingCount="1" stopTime="0.00" timeLoss="34.28" rerouteNo="0" devices="tripinfo_car_5" vType="typeCar" speedFactor="1.00" vaporized=""/>
    <tripinfo id="car_6" depart="15.00" departLane="w2A_0" departPos="5.10" departSpeed="0.00" departDelay="12.00" arrival="74.00" arrivalLane="A2e_1" arrivalPos="189.60" arrivalSpeed="13.80" duration="59.00" routeLength="394.90" waitingTime="3.00" waitingCount="1" stopTime="0.00" timeLoss="29.98" rerouteNo="0" devices="tripinfo_car_6" vType="typeCar" speedFactor="1.00" vaporized=""/>
    <tripinfo id="car_4" depart="10.00" departLane="w2A_0" departPos="5.10" departSpeed="0.00" departDelay="8.00" arrival="74.00" arrivalLane="A2e_0" arrivalPos="189.60" arrivalSpeed="13.66" duration="64.00" routeLength="394.90" waitingTime="9.00" waitingCount="1" stopTime="0.00" timeLoss="34.75" rerouteNo="0" devices="tripinfo_car_4" vType="typeCar" speedFactor="1.00" vaporized=""/>
    <tripinfo id="car_10" depart="20.00" departLane="w2A_0" departPos="5.10" departSpeed="0.00" departDelay="13.00" arrival="75.00" arrivalLane="A2e_0" arrivalPos="189.60" arrivalSpeed="13.82" duration="55.00" routeLength="394.90" waitingTime="1.00" waitingCount="1" stopTime="0.00" timeLoss="26.47" rerouteNo="0" devices="tripinfo_car_10" vType="typeCar" speedFactor="1.00" vaporized=""/>
    <tripinfo id="car_11" depart="25.00" departLane="e2A_0" departPos="5.10" departSpeed="0.00" departDelay="18.00" arrival="75.00" arrivalLane="A2w_1" arrivalPos="189.60" arrivalSpeed="13.49" duration="50.00" routeLength="394.90" waitingTime="0.00" waitingCount="0" stopTime="0.00" timeLoss="21.36" rerouteNo="0" devices="tripinfo_car_11" vType="typeCar" speedFactor="1.00" vaporized=""/>
    <tripinfo id="car_8" depart="20.00" departLane="e2A_0" departPos="5.10" departSpeed="0.00" departDelay="15.00" arrival="75.00" arrivalLane="A2w_0" arrivalPos="189.60" arrivalSpeed="13.51" duration="55.00" routeLength="394.90" waitingTime="2.00" waitingCount="1" stopTime="0.00" timeLoss="26.00" rerouteNo="0" devices="tripinfo_car_8" vType="typeCar" speedFactor="1.00" vaporized=""/>
    <tripinfo id="car_12" depart="25.00" departLane="w2A_0" departPos="5.10" departSpeed="0.00" departDelay="17.00" arrival="76.00" arrivalLane="A2e_1" arrivalPos="189.60" arrivalSpeed="13.67" duration="51.00" routeLength="394.90" waitingTime="0.00" waitingCount="0" stopTime="0.00" timeLoss="21.72" rerouteNo="0" devices="tripinfo_car_12" vType="typeCar" speedFactor="1.00" vaporized=""/>
    <tripinfo id="car_16" depart="35.00" departLane="w2A_0" departPos="5.10" departSpeed="0.00" departDelay="25.00" arrival="77.00" arrivalLane="A2e_1" arrivalPos="189.60" arrivalSpeed="13.49" duration="42.00" routeLength="394.90" waitingTime="0.00" waitingCount="0" stopTime="0.00" timeLoss="13.45" rerouteNo="0" devices="tripinfo_car_16" vType="typeCar" speedFactor="1.00" vaporized=""/>
    <tripinfo id="car_14" depart="30.00" departLane="w2A_0" departPos="5.10" departSpeed="0.00" departDelay="21.00" arrival="77.00" arrivalLane="A2e_0" arrivalPos="189.60" arrivalSpeed="13.81" duration="47.00" routeLength="394.90" waitingTime="0.00" waitingCount="0" stopTime="0.00" timeLoss="18.09" rerouteNo="0" devices="tripinfo_car_14" vType="typeCar" speedFactor="1.00" vaporized=""/>
    <tripinfo id="car_13" depart="30.00" departLane="e2A_0" departPos="5.10" departSpeed="0.00" departDelay="22.00" arrival="77.00" arrivalLane="A2w_0" arrivalPos="189.60" arrivalSpeed="13.70" duration="47.00" routeLength="394.90" waitingTime="0.00" waitingCount="0" stopTime="0.00" timeLoss="17.64" rerouteNo="0" devices="tripinfo_car_13" vType="typeCar" speedFactor="1.00" vaporized=""/>
    <tripinfo id="car_15" depart="36.00" departLane="e2A_0" departPos="5.10" departSpeed="0.00" departDelay="27.00" arrival="78.00" arrivalLane="A2w_0" arrivalPos="189.60" arrivalSpeed="13.50" duration="42.00" routeLength="394.90" waitingTime="0.00" waitingCount="0" stopTime="0.00" timeLoss="13.29" rerouteNo="0" devices="tripinfo_car_15" vType="typeCar" speedFactor="1.00" vaporized=""/>
    <tripinfo id="car_18" depart="40.00" departLane="w2A_0" departPos="5.10" departSpeed="0.00" departDelay="29.00" arrival="80.00" arrivalLane="A2e_0" arrivalPos="189.60" arrivalSpeed="13.67" duration="40.00" routeLength="394.90" waitingTime="0.00" waitingCount="0" stopTime="0.00" timeLoss="11.03" rerouteNo="0" devices="tripinfo_car_18" vType="typeCar" speedFactor="1.00" vaporized=""/>
    <tripinfo id="car_17" depart="41.00" departLane="e2A_0" departPos="5.10" departSpeed="0.00" departDelay="31.00" arrival="80.00" arrivalLane="A2w_0" arrivalPos="189.60" arrivalSpeed="13.81" duration="39.00" routeLength="394.90" waitingTime="0.00" waitingCount="0" stopTime="0.00" timeLoss="10.29" rerouteNo="0" devices="tripinfo_car_17" vType="typeCar" speedFactor="1.00" vaporized=""/>
    <tripinfo id="car_20" depart="45.00" departLane="w2A_0" departPos="5.10" departSpeed="0.00" departDelay="33.00" arrival="86.00" arrivalLane="A2e_0" arrivalPos="189.60" arrivalSpeed="13.71" duration="41.00" routeLength="394.90" waitingTime="0.00" waitingCount="0" stopTime="0.00" timeLoss="11.68" rerouteNo="0" devices="tripinfo_car_20" vType="typeCar" speedFactor="1.00" vaporized=""/>
    <tripinfo id="car_19" depart="46.00" departLane="e2A_0" departPos="5.10" departSpeed="0.00" departDelay="35.00" arrival="86.00" arrivalLane="A2w_0" arrivalPos="189.60" arrivalSpeed="13.84" duration="40.00" routeLength="394.90" waitingTime="0.00" waitingCount="0" stopTime="0.00" timeLoss="11.20" rerouteNo="0" devices="tripinfo_car_19" vType="typeCar" speedFactor="1.00" vaporized=""/>
    <tripinfo id="car_24" depart="50.00" departLane="w2A_0" departPos="5.10" departSpeed="0.00" departDelay="37.00" arrival="90.00" arrivalLane="A2e_0" arrivalPos="189.60" arrivalSpeed="13.85" duration="40.00" routeLength="394.90" waitingTime="0.00" waitingCount="0" stopTime="0.00" timeLoss="10.91" rerouteNo="0" devices="tripinfo_car_24" vType="typeCar" speedFactor="1.00" vaporized=""/>
    <tripinfo id="car_21" depart="51.00" departLane="e2A_0" departPos="5.10" departSpeed="0.00" departDelay="39.00" arrival="90.00" arrivalLane="A2w_0" arrivalPos="189.60" arrivalSpeed="13.83" duration="39.00" routeLength="394.90" waitingTime="0.00" waitingCount="0" stopTime="0.00" timeLoss="10.12" rerouteNo="0" devices="tripinfo_car_21" vType="typeCar" speedFactor="1.00" vaporized=""/>
    <tripinfo id="car_26" depart="55.00" departLane="w2A_0" departPos="5.10" departSpeed="0.00" departDelay="41.00" arrival="96.00" arrivalLane="A2e_0" arrivalPos="189.60" arrivalSpeed="13.59" duration="41.00" routeLength="394.90" waitingTime="0.00" waitingCount="0" stopTime="0.00" timeLoss="12.03" rerouteNo="0" devices="tripinfo_car_26" vType="typeCar" speedFactor="1.00" vaporized=""/>
    <tripinfo id="car_25" depart="56.00" departLane="e2A_0" departPos="5.10" departSpeed="0.00" departDelay="43.00" arrival="97.00" arrivalLane="A2w_0" arrivalPos="189.60" arrivalSpeed="13.77" duration="41.00" routeLength="394.90" waitingTime="0.00" waitingCount="0" stopTime="0.00" timeLoss="12.02" rerouteNo="0" devices="tripinfo_car_25" vType="typeCar" speedFactor="1.00" vaporized=""/>
    <tripinfo id="car_28" depart="60.00" departLane="w2A_0" departPos="5.10" departSpeed="0.00" departDelay="45.00" arrival="100.00" arrivalLane="A2e_0" arrivalPos="189.60" arrivalSpeed="13.61" duration="40.00" routeLength="394.90" waitingTime="0.00" waitingCount="0" stopTime="0.00" timeLoss="11.18" rerouteNo="0" devices="tripinfo_car_28" vType="typeCar" speedFactor="1.00" vaporized=""/>
    <tripinfo id="car_33" depart="23.00" departLane="n2A_0" departPos="5.10" departSpeed="0.00" departDelay="5.00" arrival="116.00" arrivalLane="A2s_0" arrivalPos="189.60" arrivalSpeed="13.88" duration="93.00" routeLength="394.90" waitingTime="39.00" waitingCount="1" stopTime="0.00" timeLoss="64.09" rerouteNo="0" devices="tripinfo_car_33" vType="typeCar" speedFactor="1.00" vaporized=""/>
    <tripinfo id="car_69" depart="39.00" departLane="n2A_0" departPos="5.10" departSpeed="0.00" departDelay="0.00" arrival="116.00" arrivalLane="A2s_1" arrivalPos="189.60" arrivalSpeed="13.89" duration="77.00" routeLength="394.90" waitingTime="24.00" waitingCount="1" stopTime="0.00" timeLoss="48.17" rerouteNo="0" devices="tripinfo_car_69" vType="typeCar" speedFactor="1.00" vaporized=""/>
    <tripinfo id="car_67" depart="38.00" departLane="s2A_0" departPos="5.10" departSpeed="0.00" departDelay="0.00" arrival="116.00" arrivalLane="A2n_1" arrivalPos="189.60" arrivalSpeed="13.61" duration="78.00" routeLength="394.90" waitingTime="25.00" waitingCount="1" stopTime="0.00" timeLoss="48.95" rerouteNo="0" devices="tripinfo_car_67" vType="typeCar" speedFactor="1.00" vaporized=""/>
    <tripinfo id="car_59" depart="32.00" departLane="s2A_0" departPos="5.10" departSpeed="0.00" departDelay="0.00" arrival="116.00" arrivalLane="A2n_0" arrivalPos="189.60" arrivalSpeed="13.59" duration="84.00" routeLength="394.90" waitingTime="31.00" waitingCount="1" stopTime="0.00" timeLoss="54.74" rerouteNo="0" devices="tripinfo_car_59" vType="typeCar" speedFactor="1.00" vaporized=""/>
    <tripinfo id="car_99" depart="55.00" departLane="n2A_0" departPos="5.10" departSpeed="0.00" departDelay="0.00" arrival="118.00" arrivalLane="A2s_0" arrivalPos="189.60" arrivalSpeed="13.71" duration="63.00" routeLength="394.90" waitingTime="9.00" waitingCount="1" stopTime="0.00" timeLoss="34.18" rerouteNo="0" devices="tripinfo_car_99" vType="typeCar" speedFactor="1.00" vaporized=""/>
    <tripinfo id="car_119" depart="65.00" departLane="s2A_0" departPos="5.10" departSpeed="0.00" departDelay="0.00" arrival="118.00" arrivalLane="A2n_1" arrivalPos="189.60" arrivalSpeed="13.70" duration="53.00" routeLength="394.90" waitingTime="0.00" waitingCount="0" stopTime="0.00" timeLoss="23.70" rerouteNo="0" devices="tripinfo_car_119" vType="typeCar" speedFactor="1.00" vaporized=""/>
    <tripinfo id="car_88" depart="50.00" departLane="s2A_0" departPos="5.10" departSpeed="0.00" departDelay="0.00" arrival="118.00" arrivalLane="A2n_0" arrivalPos="189.60" arrivalSpeed="13.63" duration="68.00" routeLength="394.90" waitingTime="14.00" waitingCount="1" stopTime="0.00" timeLoss="38.91" rerouteNo="0" devices="tripinfo_car_88" vType="typeCar" speedFactor="1.00" vaporized=""/>
    <tripinfo id="car_147" depart="80.00" departLane="n2A_0" departPos="5.10" departSpeed="0.00" departDelay="0.00" arrival="120.00" arrivalLane="A2s_0" arrivalPos="189.60" arrivalSpeed="13.87" duration="40.00" routeLength="394.90" waitingTime="0.00" waitingCount="0" stopTime="0.00" timeLoss="11.39" rerouteNo="0" devices="tripinfo_car_147" vType="typeCar" speedFactor="1.00" vaporized=""/>
    <tripinfo id="car_132" depart="72.00" departLane="s2A_0" departPos="5.10" departSpeed="0.00" departDelay="0.00" arrival="120.00" arrivalLane="A2n_1" arrivalPos="189.60" arrivalSpeed="13.75" duration="48.00" routeLength="394.90" waitingTime="0.00" waitingCount="0" stopTime="0.00" timeLoss="18.67" rerouteNo="0" devices="tripinfo_car_132" vType="typeCar" speedFactor="1.00" vaporized=""/>
    <tripinfo id="car_161" depart="88.00" departLane="n2A_0" departPos="5.10" departSpeed="0.00" departDelay="0.00" arrival="128.00" arrivalLane="A2s_0" arrivalPos="189.60" arrivalSpeed="13.61" duration="40.00" routeLength="394.90" waitingTime="0.00" waitingCount="0" stopTime="0.00" timeLoss="11.18" rerouteNo="0" devices="tripinfo_car_161" vType="typeCar" speedFactor="1.00" vaporized=""/>
    <tripinfo id="car_177" depart="96.00" departLane="s2A_0" departPos="5.10" departSpeed="0.00" departDelay="0.00" arrival="136.00" arrivalLane="A2n_0" arrivalPos="189.60" arrivalSpeed="13.64" duration="40.00" routeLength="394.90" waitingTime="0.00" waitingCount="0" stopTime="0.00" timeLoss="11.37" rerouteNo="0" devices="tripinfo_car_177" vType="typeCar" speedFactor="1.00" vaporized=""/>
    <tripinfo id="car_176" depart="96.00" departLane="n2A_0" departPos="5.10" departSpeed="0.00" departDelay="0.00" arrival="137.00" arrivalLane="A2s_0" arrivalPos="189.60" arrivalSpeed="13.64" duration="41.00" routeLength="394.90" waitingTime="0.00" waitingCount="0" stopTime="0.00" timeLoss="11.91" rerouteNo="0" devices="tripinfo_car_176" vType="typeCar" speedFactor="1.00" vaporized=""/>
    <tripinfo id="car_30" depart="67.00" departLane="e2A_0" departPos="5.10" departSpeed="0.00" departDelay="51.00" arrival="160.00" arrivalLane="A2w_1" arrivalPos="189.60" arrivalSpeed="13.60" duration="93.00" routeLength="394.90" waitingTime="40.00" waitingCount="1" stopTime="0.00" timeLoss="64.25" rerouteNo="0" devices="tripinfo_car_30" vType="typeCar" speedFactor="1.00" vaporized=""/>
    <tripinfo id="car_27" depart="62.00" departLane="e2A_0" departPos="5.10" departSpeed="0.00" departDelay="48.00" arrival="161.00" arrivalLane="A2w_0" arrivalPos="189.60" arrivalSpeed="13.69" duration="99.00" routeLength="394.90" waitingTime="45.00" waitingCount="1" stopTime="0.00" timeLoss="70.22" rerouteNo="0" devices="tripinfo_car_27" vType="typeCar" speedFactor="1.00" vaporized=""/>
    <tripinfo id="car_32" depart="70.00" departLane="w2A_0" departPos="5.10" departSpeed="0.00" departDelay="53.00" arrival="161.00" arrivalLane="A2e_1" arrivalPos="189.60" arrivalSpeed="13.83" duration="91.00" routeLength="394.90" waitingTime="38.00" waitingCount="1" stopTime="0.00" timeLoss="62.25" rerouteNo="0" devices="tripinfo_car_32" vType="typeCar" speedFactor="1.00" vaporized=""/>
    <tripinfo id="car_29" depart="65.00" departLane="w2A_0" departPos="5.10" departSpeed="0.00" departDelay="49.00" arrival="162.00" arrivalLane="A2e_0" arrivalPos="189.60" arrivalSpeed="13.68" duration="97.00" routeLength="394.90" waitingTime="43.00" waitingCount="1" stopTime="0.00" timeLoss="67.68" rerouteNo="0" devices="tripinfo_car_29" vType="typeCar" speedFactor="1.00" vaporized=""/>
    <tripinfo id="car_34" depart="75.00" departLane="w2A_0" departPos="5.10" departSpeed="0.00" departDelay="57.00" arrival="163.00" arrivalLane="A2e_0" arrivalPos="189.60" arrivalSpeed="13.87" duration="88.00" routeLength="394.90" waitingTime="34.00" waitingCount="1" stopTime="0.00" timeLoss="59.26" rerouteNo="0" devices="tripinfo_car_34" vType="typeCar" speedFactor="1.00" vaporized=""/>
    <tripinfo id="car_35" depart="73.00" departLane="e2A_0" departPos="5.10" departSpeed="0.00" departDelay="55.00" arrival="163.00" arrivalLane="A2w_0" arrivalPos="189.60" arrivalSpeed="13.86" duration="90.00" routeLength="394.90" waitingTime="37.00" waitingCount="1" stopTime="0.00" timeLoss="61.01" rerouteNo="0" devices="tripinfo_car_35" vType="typeCar" speedFactor="1.00" vaporized=""/>
    <tripinfo id="car_36" depart="80.00" departLane="w2A_0" departPos="5.10" departSpeed="0.00" departDelay="61.00" arrival="163.00" arrivalLane="A2e_1" arrivalPos="189.60" arrivalSpeed="13.60" duration="83.00" routeLength="394.90" waitingTime="28.00" waitingCount="1" stopTime="0.00" timeLoss="53.90" rerouteNo="0" devices="tripinfo_car_36" vType="typeCar" speedFactor="1.00" vaporized=""/>
    <tripinfo id="car_37" depart="78.00" departLane="e2A_0" departPos="5.10" departSpeed="0.00" departDelay="59.00" arrival="163.00" arrivalLane="A2w_1" arrivalPos="189.60" arrivalSpeed="13.86" duration="85.00" routeLength="394.90" waitingTime="29.00" waitingCount="1" stopTime="0.00" timeLoss="55.67" rerouteNo="0" devices="tripinfo_car_37" vType="typeCar" speedFactor="1.00" vaporized=""/>
    <tripinfo id="car_38" depart="85.00" departLane="w2A_0" departPos="5.10" departSpeed="0.00" departDelay="65.00" arrival="165.00" arrivalLane="A2e_0" arrivalPos="189.60" arrivalSpeed="13.53" duration="80.00" routeLength="394.90" waitingTime="25.00" waitingCount="1" stopTime="0.00" timeLoss="51.00" rerouteNo="0" devices="tripinfo_car_38" vType="typeCar" speedFactor="1.00" vaporized=""/>
    <tripinfo id="car_39" depart="83.00" departLane="e2A_0" departPos="5.10" departSpeed="0.00" departDelay="63.00" arrival="165.00" arrivalLane="A2w_0" arrivalPos="189.60" arrivalSpeed="13.61" duration="82.00" routeLength="394.90" waitingTime="27.00" waitingCount="1" stopTime="0.00" timeLoss="52.67" rerouteNo="0" devices="tripinfo_car_39" vType="typeCar" speedFactor="1.00" vaporized=""/>
    <tripinfo id="car_41" depart="88.00" departLane="e2A_0" departPos="5.10" departSpeed="0.00" departDelay="67.00" arrival="165.00" arrivalLane="A2w_1" arrivalPos="189.60" arrivalSpeed="13.70" duration="77.00" routeLength="394.90" waitingTime="21.00" waitingCount="1" stopTime="0.00" timeLoss="47.79" rerouteNo="0" devices="tripinfo_car_41" vType="typeCar" speedFactor="1.00" vaporized=""/>
    <tripinfo id="car_40" depart="90.00" departLane="w2A_0" departPos="5.10" departSpeed="0.00" departDelay="69.00" arrival="166.00" arrivalLane="A2e_1" arrivalPos="189.60" arrivalSpeed="13.74" duration="76.00" routeLength="394.90" waitingTime="20.00" waitingCount="1" stopTime="0.00" timeLoss="46.84" rerouteNo="0" devices="tripinfo_car_40" vType="typeCar" speedFactor="1.00" vaporized=""/>
    <tripinfo id="car_46" depart="98.00" departLane="e2A_0" departPos="5.10" departSpeed="0.00" departDelay="74.00" arrival="166.00" arrivalLane="A2w_1" arrivalPos="189.60" arrivalSpeed="13.78" duration="68.00" routeLength="394.90" waitingTime="13.00" waitingCount="1" stopTime="0.00" timeLoss="39.57" rerouteNo="0" devices="tripinfo_car_46" vType="typeCar" speedFactor="1.00" vaporized=""/>
    <tripinfo id="car_42" depart="95.00" departLane="w2A_0" departPos="5.10" departSpeed="0.00" departDelay="73.00" arrival="167.00" arrivalLane="A2e_0" arrivalPos="189.60" arrivalSpeed="13.60" duration="72.00" routeLength="394.90" waitingTime="18.00" waitingCount="1" stopTime="0.00" timeLoss="43.03" rerouteNo="0" devices="tripinfo_car_42" vType="typeCar" speedFactor="1.00" vaporized=""/>
    <tripinfo id="car_43" depart="93.00" departLane="e2A_0" departPos="5.10" departSpeed="0.00" departDelay="71.00" arrival="167.00" arrivalLane="A2w_0" arrivalPos="189.60" arrivalSpeed="13.78" duration="74.00" routeLength="394.90" waitingTime="19.00" waitingCount="1" stopTime="0.00" timeLoss="45.03" rerouteNo="0" devices="tripinfo_car_43" vType="typeCar" speedFactor="1.00" vaporized=""/>
    <tripinfo id="car_44" depart="100.00" departLane="w2A_0" departPos="5.10" departSpeed="0.00" departDelay="77.00" arrival="167.00" arrivalLane="A2e_1" arrivalPos="189.60" arrivalSpeed="13.72" duration="67.00" routeLength="394.90" waitingTime="11.00" waitingCount="1" stopTime="0.00" timeLoss="38.45" rerouteNo="0" devices="tripinfo_car_44" vType="typeCar" speedFactor="1.00" vaporized=""/>
    <tripinfo id="car_51" depart="108.00" departLane="e2A_0" departPos="5.10" departSpeed="0.00" departDelay="81.00" arrival="168.00" arrivalLane="A2w_1" arrivalPos="189.60" arrivalSpeed="13.82" duration="60.00" routeLength="394.90" waitingTime="4.00" waitingCount="1" stopTime="0.00" timeLoss="31.52" rerouteNo="0" devices="tripinfo_car_51" vType="typeCar" speedFactor="1.00" vaporized=""/>
    <tripinfo id="car_45" depart="105.00" departLane="w2A_0" departPos="5.10" departSpeed="0.00" departDelay="81.00" arrival="169.00" arrivalLane="A2e_0" arrivalPos="189.60" arrivalSpeed="13.82" duration="64.00" routeLength="394.90" waitingTime="9.00" waitingCount="1" stopTime="0.00" timeLoss="34.76" rerouteNo="0" devices="tripinfo_car_45" vType="typeCar" speedFactor="1.00" vaporized=""/>
    <tripinfo id="car_48" depart="103.00" departLane="e2A_0" departPos="5.10" departSpeed="0.00" departDelay="78.00" arrival="169.00" arrivalLane="A2w_0" arrivalPos="189.60" arrivalSpeed="13.84" duration="66.00" routeLength="394.90" waitingTime="13.00" waitingCount="1" stopTime="0.00" timeLoss="37.02" rerouteNo="0" devices="tripinfo_car_48" vType="typeCar" speedFactor="1.00" vaporized=""/>
    <tripinfo id="car_47" depart="110.00" departLane="w2A_0" departPos="5.10" departSpeed="0.00" departDelay="85.00" arrival="169.00" arrivalLane="A2e_1" arrivalPos="189.60" arrivalSpeed="13.80" duration="59.00" routeLength="394.90" waitingTime="4.00" waitingCount="1" stopTime="0.00" timeLoss="30.07" rerouteNo="0" devices="tripinfo_car_47" vType="typeCar" speedFactor="1.00" vaporized=""/>
    <tripinfo id="car_56" depart="118.00" departLane="e2A_0" departPos="5.10" departSpeed="0.00" departDelay="88.00" arrival="170.00" arrivalLane="A2w_1" arrivalPos="189.60" arrivalSpeed="13.66" duration="52.00" routeLength="394.90" waitingTime="0.00" waitingCount="0" stopTime="0.00" timeLoss="23.28" rerouteNo="0" devices="tripinfo_car_56" vType="typeCar" speedFactor="1.00" vaporized=""/>
    <tripinfo id="car_49" depart="115.00" departLane="w2A_0" departPos="5.10" departSpeed="0.00" departDelay="89.00" arrival="171.00" arrivalLane="A2e_0" arrivalPos="189.60" arrivalSpeed="13.86" duration="56.00" routeLength="394.90" waitingTime="2.00" waitingCount="1" stopTime="0.00" timeLoss="26.70" rerouteNo="0" devices="tripinfo_car_49" vType="typeCar" speedFactor="1.00" vaporized=""/>
    <tripinfo id="car_54" depart="113.00" departLane="e2A_0" departPos="5.10" departSpeed="0.00" departDelay="84.00" arrival="171.00" arrivalLane="A2w_0" arrivalPos="189.60" arrivalSpeed="13.53" duration="58.00" routeLength="394.90" waitingTime="4.00" waitingCount="1" stopTime="0.00" timeLoss="28.99" rerouteNo="0" devices="tripinfo_car_54" vType="typeCar" speedFactor="1.00" vaporized=""/>
    <tripinfo id="car_50" depart="120.00" departLane="w2A_0" departPos="5.10" departSpeed="0.00" departDelay="93.00" arrival="171.00" arrivalLane="A2e_1" arrivalPos="189.60" arrivalSpeed="13.66" duration="51.00" routeLength="394.90" waitingTime="0.00" waitingCount="0" stopTime="0.00" timeLoss="21.69" rerouteNo="0" devices="tripinfo_car_50" vType="typeCar" speedFactor="1.00" vaporized=""/>
    <tripinfo id="car_53" depart="130.00" departLane="w2A_0" departPos="5.10" departSpeed="0.00" departDelay="101.00" arrival="172.00" arrivalLane="A2e_0" arrivalPos="189.60" arrivalSpeed="13.75" duration="42.00" routeLength="394.90" waitingTime="0.00" waitingCount="0" stopTime="0.00" timeLoss="13.33" rerouteNo="0" devices="tripinfo_car_53" vType="typeCar" speedFactor="1.00" vaporized=""/>
    <tripinfo id="car_58" depart="123.00" departLane="e2A_0" departPos="5.10" departSpeed="0.00" departDelay="92.00" arrival="172.00" arrivalLane="A2w_1" arrivalPos="189.60" arrivalSpeed="13.73" duration="49.00" routeLength="394.90" waitingTime="0.00" waitingCount="0" stopTime="0.00" timeLoss="19.98" rerouteNo="0" devices="tripinfo_car_58" vType="typeCar" speedFactor="1.00" vaporized=""/>
    <tripinfo id="car_60" depart="128.00" departLane="e2A_0" departPos="5.10" departSpeed="0.00" departDelay="95.00" arrival="173.00" arrivalLane="A2w_0" arrivalPos="189.60" arrivalSpeed="13.68" duration="45.00" routeLength="394.90" waitingTime="0.00" waitingCount="0" stopTime="0.00" timeLoss="15.60" rerouteNo="0" devices="tripinfo_car_60" vType="typeCar" speedFactor="1.00" vaporized=""/>
    <tripinfo id="car_52" depart="125.00" departLane="w2A_0" departPos="5.10" departSpeed="0.00" departDelay="97.00" arrival="173.00" arrivalLane="A2e_1" arrivalPos="189.60" arrivalSpeed="13.83" duration="48.00" routeLength="394.90" waitingTime="0.00" waitingCount="0" stopTime="0.00" timeLoss="18.75" rerouteNo="0" devices="tripinfo_car_52" vType="typeCar" speedFactor="1.00" vaporized=""/>
    <tripinfo id="car_62" depart="133.00" departLane="e2A_0" departPos="5.10" departSpeed="0.00" departDelay="99.00" arrival="174.00" arrivalLane="A2w_0" arrivalPos="189.60" arrivalSpeed="13.68" duration="41.00" routeLength="394.90" waitingTime="0.00" waitingCount="0" stopTime="0.00" timeLoss="12.52" rerouteNo="0" devices="tripinfo_car_62" vType="typeCar" speedFactor="1.00" vaporized=""/>
    <tripinfo id="car_55" depart="135.00" departLane="w2A_0" departPos="5.10" departSpeed="0.00" departDelay="105.00" arrival="175.00" arrivalLane="A2e_0" arrivalPos="189.60" arrivalSpeed="13.59" duration="40.00" routeLength="394.90" waitingTime="0.00" waitingCount="0" stopTime="0.00" timeLoss="11.39" rerouteNo="0" devices="tripinfo_car_55" vType="typeCar" speedFactor="1.00" vaporized=""/>
    <tripinfo id="car_63" depart="139.00" departLane="e2A_0" departPos="5.10" departSpeed="0.00" departDelay="104.00" arrival="179.00" arrivalLane="A2w_0" arrivalPos="189.60" arrivalSpeed="13.53" duration="40.00" routeLength="394.90" waitingTime="0.00" waitingCount="0" stopTime="0.00" timeLoss="10.90" rerouteNo="0" devices="tripinfo_car_63" vType="typeCar" speedFactor="1.00" vaporized=""/>
    <tripinfo id="car_57" depart="140.00" departLane="w2A_0" departPos="5.10" departSpeed="0.00" departDelay="109.00" arrival="181.00" arrivalLane="A2e_0" arrivalPos="189.60" arrivalSpeed="13.55" duration="41.00" routeLength="394.90" waitingTime="0.00" waitingCount="0" stopTime="0.00" timeLoss="11.70" rerouteNo="0" devices="tripinfo_car_57" vType="typeCar" speedFactor="1.00" vaporized=""/>
    <tripinfo id="car_61" depart="145.00" departLane="w2A_0" departPos="5.10" departSpeed="0.00" departDelay="111.00" arrival="185.00" arrivalLane="A2e_0" arrivalPos="189.60" arrivalSpeed="13.69" duration="40.00" routeLength="394.90" waitingTime="0.00" waitingCount="0" stopTime="0.00" timeLoss="11.24" rerouteNo="0" devices="tripinfo_car_61" vType="typeCar" speedFactor="1.00" vaporized=""/>