<?xml version="1.0" encoding="UTF-8"?>

<!-- generated on Thu Sep  6 15:29:08 2018 by Eclipse SUMO GUI Version v0_32_0+2411-189ca3ff4b
<configuration xmlns:xsi="http://www.w3.org/2001/XMLSchema-instance" xsi:noNamespaceSchemaLocation="http://sumo.dlr.de/xsd/sumoConfiguration.xsd">

    <input>
        <net-file value="data/cross.net.xml"/>
        <route-files value="data/cross.rou.xml"/>
        <additional-files value="data/cross.det.xml"/>
    </input>

    <output>
        <tripinfo-output value="tripinfo.xml"/>
    </output>

    <time>
        <begin value="0"/>
    </time>

    <report>
        <verbose value="true"/>
        <no-step-log value="true"/>
    </report>

    <traci_server>
        <remote-port value="52504"/>
    </traci_server>

</configuration>
-->

<tripinfos xmlns:xsi="http://www.w3.org/2001/XMLSchema-instance" xsi:noNamespaceSchemaLocation="http://sumo.dlr.de/xsd/tripinfo_file.xsd">
    <tripinfo id="car_12" depart="8.00" departLane="n2A_0" departPos="5.10" departSpeed="0.00" departDelay="0.00" arrival="48.00" arrivalLane="A2s_0" arrivalPos="189.60" arrivalSpeed="13.70" duration="40.00" routeLength="394.90" waitingTime="0.00" waitingCount="0" stopTime="0.00" timeLoss="11.11" rerouteNo="0" devices="tripinfo_car_12" vType="typeCar" speedFactor="1.00" vaporized=""/>
    <tripinfo id="car_14" depart="13.00" departLane="n2A_0" departPos="5.10" departSpeed="0.00" departDelay="4.00" arrival="53.00" arrivalLane="A2s_0" arrivalPos="189.60" arrivalSpeed="13.57" duration="40.00" routeLength="394.90" waitingTime="0.00" waitingCount="0" stopTime="0.00" timeLoss="11.23" rerouteNo="0" devices="tripinfo_car_14" vType="typeCar" speedFactor="1.00" vaporized=""/>
    <tripinfo id="car_28" depart="15.00" departLane="s2A_0" departPos="5.10" departSpeed="0.00" departDelay="0.00" arrival="56.00" arrivalLane="A2n_0" arrivalPos="189.60" arrivalSpeed="13.72" duration="41.00" routeLength="394.90" waitingTime="0.00" waitingCount="0" stopTime="0.00" timeLoss="12.08" rerouteNo="0" devices="tripinfo_car_28" vType="typeCar" speedFactor="1.00" vaporized=""/>
    <tripinfo id="car_17" depart="18.00" departLane="n2A_0" departPos="5.10" departSpeed="0.00" departDelay="8.00" arrival="59.00" arrivalLane="A2s_0" arrivalPos="189.60" arrivalSpeed="13.75" duration="41.00" routeLength="394.90" waitingTime="0.00" waitingCount="0" stopTime="0.00" timeLoss="12.21" rerouteNo="0" devices="tripinfo_car_17" vType="typeCar" speedFactor="1.00" vaporized=""/>
    <tripinfo id="car_0" depart="0.00" departLane="w2A_0" departPos="5.10" departSpeed="0.00" departDelay="0.00" arrival="70.00" arrivalLane="A2e_0" arrivalPos="189.60" arrivalSpeed="13.66" duration="70.00" routeLength="394.90" waitingTime="18.00" waitingCount="1" stopTime="0.00" timeLoss="41.05" rerouteNo="0" devices="tripinfo_car_0" vType="typeCar" speedFactor="1.00" vaporized=""/>
    <tripinfo id="car_2" depart="5.00" departLane="w2A_0" departPos="5.10" departSpeed="0.00" departDelay="4.00" arrival="71.00" arrivalLane="A2e_1" arrivalPos="189.60" arrivalSpeed="13.83" duration="66.00" routeLength="394.90" waitingTime="13.00" waitingCount="1" stopTime="0.00" timeLoss="37.18" rerouteNo="0" devices="tripinfo_car_2" vType="typeCar" speedFactor="1.00" vaporized=""/>
    <tripinfo id="car_1" depart="0.00" departLane="e2A_0" departPos="5.10" departSpeed="0.00" departDelay="0.00" arrival="71.00" arrivalLane="A2w_0" arrivalPos="189.60" arrivalSpeed="13.72" duration="71.00" routeLength="394.90" waitingTime="19.00" waitingCount="1" stopTime="0.00" timeLoss="41.90" rerouteNo="0" devices="tripinfo_car_1" vType="typeCar" speedFactor="1.00" vaporized=""/>
    <tripinfo id="car_4" depart="5.00" departLane="e2A_0" departPos="5.10" departSpeed="0.00" departDelay="3.00" arrival="71.00" arrivalLane="A2w_1" arrivalPos="189.60" arrivalSpeed="13.85" duration="66.00" routeLength="394.90" waitingTime="12.00" waitingCount="1" stopTime="0.00" timeLoss="36.74" rerouteNo="0" devices="tripinfo_car_4" vType="typeCar" speedFactor="1.00" vaporized=""/>
    <tripinfo id="car_3" depart="10.00" departLane="w2A_0" departPos="5.10" departSpeed="0.00" departDelay="8.00" arrival="72.00" arrivalLane="A2e_0" arrivalPos="189.60" arrivalSpeed="13.81" duration="62.00" routeLength="394.90" waitingTime="10.00" waitingCount="1" stopTime="0.00" timeLoss="33.42" rerouteNo="0" devices="tripinfo_car_3" vType="typeCar" speedFactor="1.00" vaporized=""/>
    <tripinfo id="car_5" depart="10.00" departLane="e2A_0" departPos="5.10" departSpeed="0.00" departDelay="7.00" arrival="73.00" arrivalLane="A2w_0" arrivalPos="189.60" arrivalSpeed="13.71" duration="63.00" routeLength="394.90" waitingTime="10.00" waitingCount="1" stopTime="0.00" timeLoss="34.22" rerouteNo="0" devices="tripinfo_car_5" vType="typeCar" speedFactor="1.00" vaporized=""/>
    <tripinfo id="car_7" depart="15.00" departLane="e2A_0" departPos="5.10" departSpeed="0.00" departDelay="11.00" arrival="73.00" arrivalLane="A2w_1" arrivalPos="189.60" arrivalSpeed="13.85" duration="58.00" routeLength="394.90" waitingTime="4.00" waitingCount="1" stopTime="0.00" timeLoss="28.82" rerouteNo="0" devices="tripinfo_car_7" vType="typeCar" speedFactor="1.00" vaporized=""/>
    <tripinfo id="car_6" depart="15.00" departLane="w2A_0" departPos="5.10" departSpeed="0.00" departDelay="11.00" arrival="74.00" arrivalLane="A2e_1" arrivalPos="189.60" arrivalSpeed="13.69" duration="59.00" routeLength="394.90" waitingTime="3.00" waitingCount="1" stopTime="0.00" timeLoss="29.78" rerouteNo="0" devices="tripinfo_car_6" vType="typeCar" speedFactor="1.00" vaporized=""/>
    <tripinfo id="car_8" depart="20.00" departLane="w2A_0" departPos="5.10" departSpeed="0.00" departDelay="15.00" arrival="74.00" arrivalLane="A2e_0" arrivalPos="189.60" arrivalSpeed="13.87" duration="54.00" routeLength="394.90" waitingTime="2.00" waitingCount="1" stopTime="0.00" timeLoss="25.37" rerouteNo="0" devices="tripinfo_car_8" vType="typeCar" speedFactor="1.00" vaporized=""/>
    <tripinfo id="car_13" depart="25.00" departLane="e2A_0" departPos="5.10" departSpeed="0.00" departDelay="17.00" arrival="75.00" arrivalLane="A2w_1" arrivalPos="189.60" arrivalSpeed="13.55" duration="50.00" routeLength="394.90" waitingTime="0.00" waitingCount="0" stopTime="0.00" timeLoss="20.77" rerouteNo="0" devices="tripinfo_car_13" vType="typeCar" speedFactor="1.00" vaporized=""/>
    <tripinfo id="car_9" depart="25.00" departLane="w2A_0" departPos="5.10" departSpeed="0.00" departDelay="19.00" arrival="76.00" arrivalLane="A2e_1" arrivalPos="189.60" arrivalSpeed="13.68" duration="51.00" routeLength="394.90" waitingTime="0.00" waitingCount="0" stopTime="0.00" timeLoss="21.77" rerouteNo="0" devices="tripinfo_car_9" vType="typeCar" speedFactor="1.00" vaporized=""/>
    <tripinfo id="car_10" depart="20.00" departLane="e2A_0" departPos="5.10" departSpeed="0.00" departDelay="14.00" arrival="76.00" arrivalLane="A2w_0" arrivalPos="189.60" arrivalSpeed="13.81" duration="56.00" routeLength="394.90" waitingTime="1.00" waitingCount="1" stopTime="0.00" timeLoss="26.89" rerouteNo="0" devices="tripinfo_car_10" vType="typeCar" speedFactor="1.00" vaporized=""/>
    <tripinfo id="car_16" depart="30.00" departLane="e2A_0" departPos="5.10" departSpeed="0.00" departDelay="21.00" arrival="76.00" arrivalLane="A2w_1" arrivalPos="189.60" arrivalSpeed="13.73" duration="46.00" routeLength="394.90" waitingTime="0.00" waitingCount="0" stopTime="0.00" timeLoss="17.38" rerouteNo="0" devices="tripinfo_car_16" vType="typeCar" speedFactor="1.00" vaporized=""/>
    <tripinfo id="car_11" depart="30.00" departLane="w2A_0" departPos="5.10" departSpeed="0.00" departDelay="23.00" arrival="76.00" arrivalLane="A2e_0" arrivalPos="189.60" arrivalSpeed="13.68" duration="46.00" routeLength="394.90" waitingTime="0.00" waitingCount="0" stopTime="0.00" timeLoss="17.25" rerouteNo="0" devices="tripinfo_car_11" vType="typeCar" speedFactor="1.00" vaporized=""/>
    <tripinfo id="car_19" depart="35.00" departLane="e2A_0" departPos="5.10" departSpeed="0.00" departDelay="25.00" arrival="77.00" arrivalLane="A2w_0" arrivalPos="189.60" arrivalSpeed="13.56" duration="42.00" routeLength="394.90" waitingTime="0.00" waitingCount="0" stopTime="0.00" timeLoss="13.57" rerouteNo="0" devices="tripinfo_car_19" vType="typeCar" speedFactor="1.00" vaporized=""/>
    <tripinfo id="car_15" depart="35.00" departLane="w2A_0" departPos="5.10" departSpeed="0.00" departDelay="26.00" arrival="78.00" arrivalLane="A2e_0" arrivalPos="189.60" arrivalSpeed="13.87" duration="43.00" routeLength="394.90" waitingTime="0.00" waitingCount="0" stopTime="0.00" timeLoss="13.90" rerouteNo="0" devices="tripinfo_car_15" vType="typeCar" speedFactor="1.00" vaporized=""/>
    <tripinfo id="car_21" depart="40.00" departLane="e2A_0" departPos="5.10" departSpeed="0.00" departDelay="29.00" arrival="81.00" arrivalLane="A2w_0" arrivalPos="189.60" arrivalSpeed="13.71" duration="41.00" routeLength="394.90" waitingTime="0.00" waitingCount="0" stopTime="0.00" timeLoss="12.32" rerouteNo="0" devices="tripinfo_car_21" vType="typeCar" speedFactor="1.00" vaporized=""/>
    <tripinfo id="car_18" depart="41.00" departLane="w2A_0" departPos="5.10" departSpeed="0.00" departDelay="31.00" arrival="82.00" arrivalLane="A2e_0" arrivalPos="189.60" arrivalSpeed="13.56" duration="41.00" routeLength="394.90" waitingTime="0.00" waitingCount="0" stopTime="0.00" timeLoss="11.70" rerouteNo="0" devices="tripinfo_car_18" vType="typeCar" speedFactor="1.00" vaporized=""/>
    <tripinfo id="car_23" depart="45.00" departLane="e2A_0" departPos="5.10" departSpeed="0.00" departDelay="33.00" arrival="87.00" arrivalLane="A2w_0" arrivalPos="189.60" arrivalSpeed="13.82" duration="42.00" routeLength="394.90" waitingTime="1.00" waitingCount="1" stopTime="0.00" timeLoss="12.65" rerouteNo="0" devices="tripinfo_car_23" vType="typeCar" speedFactor="1.00" vaporized=""/>
    <tripinfo id="car_20" depart="46.00" departLane="w2A_0" departPos="5.10" departSpeed="0.00" departDelay="35.00" arrival="87.00" arrivalLane="A2e_0" arrivalPos="189.60" arrivalSpeed="13.69" duration="41.00" routeLength="394.90" waitingTime="0.00" waitingCount="0" stopTime="0.00" timeLoss="12.23" rerouteNo="0" devices="tripinfo_car_20" vType="typeCar" speedFactor="1.00" vaporized=""/>
    <tripinfo id="car_25" depart="51.00" departLane="e2A_0" departPos="5.10" departSpeed="0.00" departDelay="38.00" arrival="91.00" arrivalLane="A2w_0" arrivalPos="189.60" arrivalSpeed="13.73" duration="40.00" routeLength="394.90" waitingTime="0.00" waitingCount="0" stopTime="0.00" timeLoss="11.49" rerouteNo="0" devices="tripinfo_car_25" vType="typeCar" speedFactor="1.00" vaporized=""/>
    <tripinfo id="car_22" depart="51.00" departLane="w2A_0" departPos="5.10" departSpeed="0.00" departDelay="39.00" arrival="92.00" arrivalLane="A2e_0" arrivalPos="189.60" arrivalSpeed="13.76" duration="41.00" routeLength="394.90" waitingTime="0.00" waitingCount="0" stopTime="0.00" timeLoss="11.64" rerouteNo="0" devices="tripinfo_car_22" vType="typeCar" speedFactor="1.00" vaporized=""/>
    <tripinfo id="car_27" depart="56.00" departLane="e2A_0" departPos="5.10" departSpeed="0.00" departDelay="42.00" arrival="96.00" arrivalLane="A2w_0" arrivalPos="189.60" arrivalSpeed="13.55" duration="40.00" routeLength="394.90" waitingTime="0.00" waitingCount="0" stopTime="0.00" timeLoss="11.15" rerouteNo="0" devices="tripinfo_car_27" vType="typeCar" speedFactor="1.00" vaporized=""/>
    <tripinfo id="car_24" depart="56.00" departLane="w2A_0" departPos="5.10" departSpeed="0.00" departDelay="43.00" arrival="96.00" arrivalLane="A2e_0" arrivalPos="189.60" arrivalSpeed="13.86" duration="40.00" routeLength="394.90" waitingTime="0.00" waitingCount="0" stopTime="0.00" timeLoss="10.74" rerouteNo="0" devices="tripinfo_car_24" vType="typeCar" speedFactor="1.00" vaporized=""/>
    <tripinfo id="car_30" depart="61.00" departLane="e2A_0" departPos="5.10" departSpeed="0.00" departDelay="46.00" arrival="101.00" arrivalLane="A2w_0" arrivalPos="189.60" arrivalSpeed="13.81" duration="40.00" routeLength="394.90" waitingTime="0.00" waitingCount="0" stopTime="0.00" timeLoss="10.89" rerouteNo="0" devices="tripinfo_car_30" vType="typeCar" speedFactor="1.00" vaporized=""/>
    <tripinfo id="car_26" depart="61.00" departLane="w2A_0" departPos="5.10" departSpeed="0.00" departDelay="47.00" arrival="102.00" arrivalLane="A2e_0" arrivalPos="189.60" arrivalSpeed="13.88" duration="41.00" routeLength="394.90" waitingTime="0.00" waitingCount="0" stopTime="0.00" timeLoss="11.77" rerouteNo="0" devices="tripinfo_car_26" vType="typeCar" speedFactor="1.00" vaporized=""/>
    <tripinfo id="car_124" depart="65.00" departLane="s2A_0" departPos="5.10" departSpeed="0.00" departDelay="0.00" arrival="106.00" arrivalLane="A2n_1" arrivalPos="189.60" arrivalSpeed="13.84" duration="41.00" routeLength="394.90" waitingTime="0.00" waitingCount="0" stopTime="0.00" timeLoss="12.07" rerouteNo="0" devices="tripinfo_car_124" vType="typeCar" speedFactor="1.00" vaporized=""/>
    <tripinfo id="car_78" depart="41.00" departLane="s2A_0" departPos="5.10" departSpeed="0.00" departDelay="0.00" arrival="116.00" arrivalLane="A2n_0" arrivalPos="189.60" arrivalSpeed="13.62" duration="75.00" routeLength="394.90" waitingTime="21.00" waitingCount="1" stopTime="0.00" timeLoss="46.36" rerouteNo="0" devices="tripinfo_car_78" vType="typeCar" speedFactor="1.00" vaporized=""/>
    <tripinfo id="car_39" depart="28.00" departLane="n2A_0" departPos="5.10" departSpeed="0.00" departDelay="7.00" arrival="117.00" arrivalLane="A2s_1" arrivalPos="189.60" arrivalSpeed="13.54" duration="89.00" routeLength="394.90" waitingTime="34.00" waitingCount="1" stopTime="0.00" timeLoss="60.05" rerouteNo="0" devices="tripinfo_car_39" vType="typeCar" speedFactor="1.00" vaporized=""/>
    <tripinfo id="car_31" depart="23.00" departLane="n2A_0" departPos="5.10" departSpeed="0.00" departDelay="7.00" arrival="117.00" arrivalLane="A2s_0" arrivalPos="189.60" arrivalSpeed="13.83" duration="94.00" routeLength="394.90" waitingTime="40.00" waitingCount="1" stopTime="0.00" timeLoss="64.65" rerouteNo="0" devices="tripinfo_car_31" vType="typeCar" speedFactor="1.00" vaporized=""/>
    <tripinfo id="car_42" depart="33.00" departLane="n2A_0" departPos="5.10" departSpeed="0.00" departDelay="11.00" arrival="118.00" arrivalLane="A2s_0" arrivalPos="189.60" arrivalSpeed="13.56" duration="85.00" routeLength="394.90" waitingTime="31.00" waitingCount="1" stopTime="0.00" timeLoss="56.27" rerouteNo="0" devices="tripinfo_car_42" vType="typeCar" speedFactor="1.00" vaporized=""/>
    <tripinfo id="car_45" depart="38.00" departLane="n2A_0" departPos="5.10" departSpeed="0.00" departDelay="15.00" arrival="119.00" arrivalLane="A2s_1" arrivalPos="189.60" arrivalSpeed="13.68" duration="81.00" routeLength="394.90" waitingTime="27.00" waitingCount="1" stopTime="0.00" timeLoss="51.66" rerouteNo="0" devices="tripinfo_car_45" vType="typeCar" speedFactor="1.00" vaporized=""/>
    <tripinfo id="car_148" depart="79.00" departLane="s2A_0" departPos="5.10" departSpeed="0.00" departDelay="0.00" arrival="119.00" arrivalLane="A2n_0" arrivalPos="189.60" arrivalSpeed="13.78" duration="40.00" routeLength="394.90" waitingTime="0.00" waitingCount="0" stopTime="0.00" timeLoss="11.49" rerouteNo="0" devices="tripinfo_car_148" vType="typeCar" speedFactor="1.00" vaporized=""/>
    <tripinfo id="car_60" depart="48.00" departLane="n2A_0" departPos="5.10" departSpeed="0.00" departDelay="17.00" arrival="120.00" arrivalLane="A2s_1" arrivalPos="189.60" arrivalSpeed="13.68" duration="72.00" routeLength="394.90" waitingTime="18.00" waitingCount="1" stopTime="0.00" timeLoss="43.28" rerouteNo="0" devices="tripinfo_car_60" vType="typeCar" speedFactor="1.00" vaporized=""/>
    <tripinfo id="car_55" depart="43.00" departLane="n2A_0" departPos="5.10" departSpeed="0.00" departDelay="14.00" arrival="120.00" arrivalLane="A2s_0" arrivalPos="189.60" arrivalSpeed="13.72" duration="77.00" routeLength="394.90" waitingTime="23.00" waitingCount="1" stopTime="0.00" timeLoss="47.90" rerouteNo="0" devices="tripinfo_car_55" vType="typeCar" speedFactor="1.00" vaporized=""/>
    <tripinfo id="car_72" depart="58.00" departLane="n2A_0" departPos="5.10" departSpeed="0.00" departDelay="20.00" arrival="122.00" arrivalLane="A2s_1" arrivalPos="189.60" arrivalSpeed="13.74" duration="64.00" routeLength="394.90" waitingTime="10.00" waitingCount="1" stopTime="0.00" timeLoss="34.95" rerouteNo="0" devices="tripinfo_car_72" vType="typeCar" speedFactor="1.00" vaporized=""/>
    <tripinfo id="car_64" depart="53.00" departLane="n2A_0" departPos="5.10" departSpeed="0.00" departDelay="20.00" arrival="122.00" arrivalLane="A2s_0" arrivalPos="189.60" arrivalSpeed="13.84" duration="69.00" routeLength="394.90" waitingTime="15.00" waitingCount="1" stopTime="0.00" timeLoss="39.84" rerouteNo="0" devices="tripinfo_car_64" vType="typeCar" speedFactor="1.00" vaporized=""/>
    <tripinfo id="car_115" depart="69.00" departLane="n2A_0" departPos="5.10" departSpeed="0.00" departDelay="8.00" arrival="123.00" arrivalLane="A2s_1" arrivalPos="189.60" arrivalSpeed="13.70" duration="54.00" routeLength="394.90" waitingTime="0.00" waitingCount="0" stopTime="0.00" timeLoss="25.57" rerouteNo="0" devices="tripinfo_car_115" vType="typeCar" speedFactor="1.00" vaporized=""/>
    <tripinfo id="car_91" depart="63.00" departLane="n2A_0" departPos="5.10" departSpeed="0.00" departDelay="16.00" arrival="123.00" arrivalLane="A2s_0" arrivalPos="189.60" arrivalSpeed="13.72" duration="60.00" routeLength="394.90" waitingTime="6.00" waitingCount="1" stopTime="0.00" timeLoss="31.47" rerouteNo="0" devices="tripinfo_car_91" vType="typeCar" speedFactor="1.00" vaporized=""/>
    <tripinfo id="car_196" depart="105.00" departLane="n2A_0" departPos="5.10" departSpeed="0.00" departDelay="0.00" arrival="145.00" arrivalLane="A2s_0" arrivalPos="189.60" arrivalSpeed="13.76" duration="40.00" routeLength="394.90" waitingTime="0.00" waitingCount="0" stopTime="0.00" timeLoss="10.74" rerouteNo="0" devices="tripinfo_car_196" vType="typeCar" speedFactor="1.00" vaporized=""/>
    <tripinfo id="car_33" depart="66.00" departLane="e2A_0" departPos="5.10" departSpeed="0.00" departDelay="50.00" arrival="160.00" arrivalLane="A2w_0" arrivalPos="189.60" arrivalSpeed="13.61" duration="94.00" routeLength="394.90" waitingTime="42.00" waitingCount="1" stopTime="0.00" timeLoss="65.47" rerouteNo="0" devices="tripinfo_car_33" vType="typeCar" speedFactor="1.00" vaporized=""/>
    <tripinfo id="car_32" depart="71.00" departLane="w2A_0" departPos="5.10" departSpeed="0.00" departDelay="55.00" arrival="161.00" arrivalLane="A2e_1" arrivalPos="189.60" arrivalSpeed="13.59" duration="90.00" routeLength="394.90" waitingTime="36.00" waitingCount="1" stopTime="0.00" timeLoss="61.48" rerouteNo="0" devices="tripinfo_car_32" vType="typeCar" speedFactor="1.00" vaporized=""/>
    <tripinfo id="car_35" depart="71.00" departLane="e2A_0" departPos="5.10" departSpeed="0.00" departDelay="54.00" arrival="161.00" arrivalLane="A2w_1" arrivalPos="189.60" arrivalSpeed="13.82" duration="90.00" routeLength="394.90" waitingTime="37.00" waitingCount="1" stopTime="0.00" timeLoss="61.37" rerouteNo="0" devices="tripinfo_car_35" vType="typeCar" speedFactor="1.00" vaporized=""/>
    <tripinfo id="car_29" depart="66.00" departLane="w2A_0" departPos="5.10" departSpeed="0.00" departDelay="51.00" arrival="161.00" arrivalLane="A2e_0" arrivalPos="189.60" arrivalSpeed="13.79" duration="95.00" routeLength="394.90" waitingTime="42.00" waitingCount="1" stopTime="0.00" timeLoss="66.00" rerouteNo="0" devices="tripinfo_car_29" vType="typeCar" speedFactor="1.00" vaporized=""/>
    <tripinfo id="car_36" depart="81.00" departLane="w2A_0" departPos="5.10" departSpeed="0.00" departDelay="63.00" arrival="163.00" arrivalLane="A2e_1" arrivalPos="189.60" arrivalSpeed="13.71" duration="82.00" routeLength="394.90" waitingTime="26.00" waitingCount="1" stopTime="0.00" timeLoss="53.12" rerouteNo="0" devices="tripinfo_car_36" vType="typeCar" speedFactor="1.00" vaporized=""/>
    <tripinfo id="car_44" depart="81.00" departLane="e2A_0" departPos="5.10" departSpeed="0.00" departDelay="59.00" arrival="163.00" arrivalLane="A2w_1" arrivalPos="189.60" arrivalSpeed="13.57" duration="82.00" routeLength="394.90" waitingTime="28.00" waitingCount="1" stopTime="0.00" timeLoss="53.27" rerouteNo="0" devices="tripinfo_car_44" vType="typeCar" speedFactor="1.00" vaporized=""/>
    <tripinfo id="car_41" depart="76.00" departLane="e2A_0" departPos="5.10" departSpeed="0.00" departDelay="55.00" arrival="163.00" arrivalLane="A2w_0" arrivalPos="189.60" arrivalSpeed="13.52" duration="87.00" routeLength="394.90" waitingTime="34.00" waitingCount="1" stopTime="0.00" timeLoss="58.19" rerouteNo="0" devices="tripinfo_car_41" vType="typeCar" speedFactor="1.00" vaporized=""/>
    <tripinfo id="car_34" depart="76.00" departLane="w2A_0" departPos="5.10" departSpeed="0.00" departDelay="59.00" arrival="164.00" arrivalLane="A2e_0" arrivalPos="189.60" arrivalSpeed="13.87" duration="88.00" routeLength="394.90" waitingTime="34.00" waitingCount="1" stopTime="0.00" timeLoss="58.85" rerouteNo="0" devices="tripinfo_car_34" vType="typeCar" speedFactor="1.00" vaporized=""/>
    <tripinfo id="car_38" depart="91.00" departLane="w2A_0" departPos="5.10" departSpeed="0.00" departDelay="71.00" arrival="165.00" arrivalLane="A2e_1" arrivalPos="189.60" arrivalSpeed="13.49" duration="74.00" routeLength="394.90" waitingTime="18.00" waitingCount="1" stopTime="0.00" timeLoss="45.07" rerouteNo="0" devices="tripinfo_car_38" vType="typeCar" speedFactor="1.00" vaporized=""/>
    <tripinfo id="car_48" depart="91.00" departLane="e2A_0" departPos="5.10" departSpeed="0.00" departDelay="67.00" arrival="165.00" arrivalLane="A2w_1" arrivalPos="189.60" arrivalSpeed="13.59" duration="74.00" routeLength="394.90" waitingTime="19.00" waitingCount="1" stopTime="0.00" timeLoss="44.87" rerouteNo="0" devices="tripinfo_car_48" vType="typeCar" speedFactor="1.00" vaporized=""/>
    <tripinfo id="car_46" depart="86.00" departLane="e2A_0" departPos="5.10" departSpeed="0.00" departDelay="63.00" arrival="165.00" arrivalLane="A2w_0" arrivalPos="189.60" arrivalSpeed="13.85" duration="79.00" routeLength="394.90" waitingTime="23.00" waitingCount="1" stopTime="0.00" timeLoss="50.50" rerouteNo="0" devices="tripinfo_car_46" vType="typeCar" speedFactor="1.00" vaporized=""/>
    <tripinfo id="car_52" depart="101.00" departLane="e2A_0" departPos="5.10" departSpeed="0.00" departDelay="75.00" arrival="166.00" arrivalLane="A2w_1" arrivalPos="189.60" arrivalSpeed="13.66" duration="65.00" routeLength="394.90" waitingTime="12.00" waitingCount="1" stopTime="0.00" timeLoss="36.51" rerouteNo="0" devices="tripinfo_car_52" vType="typeCar" speedFactor="1.00" vaporized=""/>
    <tripinfo id="car_37" depart="86.00" departLane="w2A_0" departPos="5.10" departSpeed="0.00" departDelay="67.00" arrival="166.00" arrivalLane="A2e_0" arrivalPos="189.60" arrivalSpeed="13.50" duration="80.00" routeLength="394.90" waitingTime="25.00" waitingCount="1" stopTime="0.00" timeLoss="50.68" rerouteNo="0" devices="tripinfo_car_37" vType="typeCar" speedFactor="1.00" vaporized=""/>
    <tripinfo id="car_43" depart="101.00" departLane="w2A_0" departPos="5.10" departSpeed="0.00" departDelay="79.00" arrival="167.00" arrivalLane="A2e_1" arrivalPos="189.60" arrivalSpeed="13.62" duration="66.00" routeLength="394.90" waitingTime="10.00" waitingCount="1" stopTime="0.00" timeLoss="37.21" rerouteNo="0" devices="tripinfo_car_43" vType="typeCar" speedFactor="1.00" vaporized=""/>
    <tripinfo id="car_40" depart="96.00" departLane="w2A_0" departPos="5.10" departSpeed="0.00" departDelay="75.00" arrival="167.00" arrivalLane="A2e_0" arrivalPos="189.60" arrivalSpeed="13.79" duration="71.00" routeLength="394.90" waitingTime="15.00" waitingCount="1" stopTime="0.00" timeLoss="42.30" rerouteNo="0" devices="tripinfo_car_40" vType="typeCar" speedFactor="1.00" vaporized=""/>
    <tripinfo id="car_50" depart="96.00" departLane="e2A_0" departPos="5.10" departSpeed="0.00" departDelay="71.00" arrival="167.00" arrivalLane="A2w_0" arrivalPos="189.60" arrivalSpeed="13.71" duration="71.00" routeLength="394.90" waitingTime="16.00" waitingCount="1" stopTime="0.00" timeLoss="42.26" rerouteNo="0" devices="tripinfo_car_50" vType="typeCar" speedFactor="1.00" vaporized=""/>
    <tripinfo id="car_57" depart="111.00" departLane="e2A_0" departPos="5.10" departSpeed="0.00" departDelay="82.00" arrival="168.00" arrivalLane="A2w_1" arrivalPos="189.60" arrivalSpeed="13.74" duration="57.00" routeLength="394.90" waitingTime="3.00" waitingCount="1" stopTime="0.00" timeLoss="28.29" rerouteNo="0" devices="tripinfo_car_57" vType="typeCar" speedFactor="1.00" vaporized=""/>
    <tripinfo id="car_49" depart="112.00" departLane="w2A_0" departPos="5.10" departSpeed="0.00" departDelay="87.00" arrival="169.00" arrivalLane="A2e_1" arrivalPos="189.60" arrivalSpeed="13.67" duration="57.00" routeLength="394.90" waitingTime="3.00" waitingCount="1" stopTime="0.00" timeLoss="27.88" rerouteNo="0" devices="tripinfo_car_49" vType="typeCar" speedFactor="1.00" vaporized=""/>
    <tripinfo id="car_47" depart="107.00" departLane="w2A_0" departPos="5.10" departSpeed="0.00" departDelay="83.00" arrival="169.00" arrivalLane="A2e_0" arrivalPos="189.60" arrivalSpeed="13.56" duration="62.00" routeLength="394.90" waitingTime="7.00" waitingCount="1" stopTime="0.00" timeLoss="32.92" rerouteNo="0" devices="tripinfo_car_47" vType="typeCar" speedFactor="1.00" vaporized=""/>
    <tripinfo id="car_54" depart="106.00" departLane="e2A_0" departPos="5.10" departSpeed="0.00" departDelay="78.00" arrival="169.00" arrivalLane="A2w_0" arrivalPos="189.60" arrivalSpeed="13.51" duration="63.00" routeLength="394.90" waitingTime="9.00" waitingCount="1" stopTime="0.00" timeLoss="34.26" rerouteNo="0" devices="tripinfo_car_54" vType="typeCar" speedFactor="1.00" vaporized=""/>
    <tripinfo id="car_53" depart="122.00" departLane="w2A_0" departPos="5.10" departSpeed="0.00" departDelay="94.00" arrival="170.00" arrivalLane="A2e_1" arrivalPos="189.60" arrivalSpeed="13.57" duration="48.00" routeLength="394.90" waitingTime="0.00" waitingCount="0" stopTime="0.00" timeLoss="19.48" rerouteNo="0" devices="tripinfo_car_53" vType="typeCar" speedFactor="1.00" vaporized=""/>
    <tripinfo id="car_63" depart="121.00" departLane="e2A_0" departPos="5.10" departSpeed="0.00" departDelay="89.00" arrival="170.00" arrivalLane="A2w_1" arrivalPos="189.60" arrivalSpeed="13.65" duration="49.00" routeLength="394.90" waitingTime="0.00" waitingCount="0" stopTime="0.00" timeLoss="20.05" rerouteNo="0" devices="tripinfo_car_63" vType="typeCar" speedFactor="1.00" vaporized=""/>
    <tripinfo id="car_51" depart="117.00" departLane="w2A_0" departPos="5.10" departSpeed="0.00" departDelay="91.00" arrival="171.00" arrivalLane="A2e_0" arrivalPos="189.60" arrivalSpeed="13.81" duration="54.00" routeLength="394.90" waitingTime="0.00" waitingCount="0" stopTime="0.00" timeLoss="24.60" rerouteNo="0" devices="tripinfo_car_51" vType="typeCar" speedFactor="1.00" vaporized=""/>
    <tripinfo id="car_59" depart="116.00" departLane="e2A_0" departPos="5.10" departSpeed="0.00" departDelay="86.00" arrival="171.00" arrivalLane="A2w_0" arrivalPos="189.60" arrivalSpeed="13.62" duration="55.00" routeLength="394.90" waitingTime="0.00" waitingCount="0" stopTime="0.00" timeLoss="26.29" rerouteNo="0" devices="tripinfo_car_59" vType="typeCar" speedFactor="1.00" vaporized=""/>
    <tripinfo id="car_67" depart="126.00" departLane="e2A_0" departPos="5.10" departSpeed="0.00" departDelay="92.00" arrival="172.00" arrivalLane="A2w_1" arrivalPos="189.60" arrivalSpeed="13.59" duration="46.00" routeLength="394.90" waitingTime="0.00" waitingCount="0" stopTime="0.00" timeLoss="16.69" rerouteNo="0" devices="tripinfo_car_67" vType="typeCar" speedFactor="1.00" vaporized=""/>
    <tripinfo id="car_56" depart="127.00" departLane="w2A_0" departPos="5.10" departSpeed="0.00" departDelay="98.00" arrival="172.00" arrivalLane="A2e_0" arrivalPos="189.60" arrivalSpeed="13.84" duration="45.00" routeLength="394.90" waitingTime="0.00" waitingCount="0" stopTime="0.00" timeLoss="16.20" rerouteNo="0" devices="tripinfo_car_56" vType="typeCar" speedFactor="1.00" vaporized=""/>
    <tripinfo id="car_69" depart="131.00" departLane="e2A_0" departPos="5.10" departSpeed="0.00" departDelay="95.00" arrival="173.00" arrivalLane="A2w_0" arrivalPos="189.60" arrivalSpeed="13.75" duration="42.00" routeLength="394.90" waitingTime="0.00" waitingCount="0" stopTime="0.00" timeLoss="12.89" rerouteNo="0" devices="tripinfo_car_69" vType="typeCar" speedFactor="1.00" vaporized=""/>
    <tripinfo id="car_58" depart="132.00" departLane="w2A_0" departPos="5.10" departSpeed="0.00" departDelay="102.00" arrival="174.00" arrivalLane="A2e_0" arrivalPos="189.60" arrivalSpeed="13.86" duration="42.00" routeLength="394.90" waitingTime="0.00" waitingCount="0" stopTime="0.00" timeLoss="12.86" rerouteNo="0" devices="tripinfo_car_58" vType="typeCar" speedFactor="1.00" vaporized=""/>
    <tripinfo id="car_71" depart="136.00" departLane="e2A_0" departPos="5.10" departSpeed="0.00" departDelay="99.00" arrival="176.00" arrivalLane="A2w_0" arrivalPos="189.60" arrivalSpeed="13.77" duration="40.00" routeLength="394.90" waitingTime="0.00" waitingCount="0" stopTime="0.00" timeLoss="11.55" rerouteNo="0" devices="tripinfo_car_71" vType="typeCar" speedFactor="1.00" vaporized=""/>
    <tripinfo id="car_61" depart="137.00" departLane="w2A_0" departPos="5.10" departSpeed="0.00" departDelay="106.00" arrival="178.00" arrivalLane="A2e_0" arrivalPos="189.60" arrivalSpeed="13.75" duration="41.00" routeLength="394.90" waitingTime="0.00" waitingCount="0" stopTime="0.00" timeLoss="12.18" rerouteNo="0" devices="tripinfo_car_61" vType="typeCar" speedFactor="1.00" vaporized=""/>