<?xml version="1.0" encoding="UTF-8"?>

<!-- generated on Thu Sep  6 13:29:42 2018 by Eclipse SUMO GUI Version v0_32_0+2411-189ca3ff4b
<configuration xmlns:xsi="http://www.w3.org/2001/XMLSchema-instance" xsi:noNamespaceSchemaLocation="http://sumo.dlr.de/xsd/sumoConfiguration.xsd">

    <input>
        <net-file value="data/cross.net.xml"/>
        <route-files value="data/cross.rou.xml"/>
        <additional-files value="data/cross.det.xml"/>
    </input>

    <output>
        <emission-output value="emissions.xml"/>
        <tripinfo-output value="tripinfo.xml"/>
    </output>

    <time>
        <begin value="0"/>
    </time>

    <report>
        <verbose value="true"/>
        <no-step-log value="true"/>
    </report>

    <traci_server>
        <remote-port value="51249"/>
    </traci_server>

</configuration>
-->

<tripinfos xmlns:xsi="http://www.w3.org/2001/XMLSchema-instance" xsi:noNamespaceSchemaLocation="http://sumo.dlr.de/xsd/tripinfo_file.xsd">
    <tripinfo id="car_18" depart="11.00" departLane="s2A_0" departPos="5.10" departSpeed="0.00" departDelay="0.00" arrival="51.00" arrivalLane="A2n_0" arrivalPos="189.60" arrivalSpeed="13.78" duration="40.00" routeLength="394.90" waitingTime="0.00" waitingCount="0" stopTime="0.00" timeLoss="11.12" rerouteNo="0" devices="tripinfo_car_18" vType="typeCar" speedFactor="1.00" vaporized=""/>
    <tripinfo id="car_17" depart="11.00" departLane="n2A_0" departPos="5.10" departSpeed="0.00" departDelay="0.00" arrival="51.00" arrivalLane="A2s_0" arrivalPos="189.60" arrivalSpeed="13.67" duration="40.00" routeLength="394.90" waitingTime="0.00" waitingCount="0" stopTime="0.00" timeLoss="11.30" rerouteNo="0" devices="tripinfo_car_17" vType="typeCar" speedFactor="1.00" vaporized=""/>
    <tripinfo id="car_30" depart="17.00" departLane="n2A_0" departPos="5.10" departSpeed="0.00" departDelay="0.00" arrival="59.00" arrivalLane="A2s_0" arrivalPos="189.60" arrivalSpeed="13.57" duration="42.00" routeLength="394.90" waitingTime="0.00" waitingCount="0" stopTime="0.00" timeLoss="13.10" rerouteNo="0" devices="tripinfo_car_30" vType="typeCar" speedFactor="1.00" vaporized=""/>
    <tripinfo id="car_3" depart="6.00" departLane="w2A_0" departPos="5.10" departSpeed="0.00" departDelay="4.00" arrival="71.00" arrivalLane="A2e_1" arrivalPos="189.60" arrivalSpeed="13.86" duration="65.00" routeLength="394.90" waitingTime="12.00" waitingCount="1" stopTime="0.00" timeLoss="36.21" rerouteNo="0" devices="tripinfo_car_3" vType="typeCar" speedFactor="1.00" vaporized=""/>
    <tripinfo id="car_2" depart="5.00" departLane="e2A_0" departPos="5.10" departSpeed="0.00" departDelay="4.00" arrival="71.00" arrivalLane="A2w_1" arrivalPos="189.60" arrivalSpeed="13.64" duration="66.00" routeLength="394.90" waitingTime="13.00" waitingCount="1" stopTime="0.00" timeLoss="36.93" rerouteNo="0" devices="tripinfo_car_2" vType="typeCar" speedFactor="1.00" vaporized=""/>
    <tripinfo id="car_1" depart="1.00" departLane="w2A_0" departPos="5.10" departSpeed="0.00" departDelay="0.00" arrival="72.00" arrivalLane="A2e_0" arrivalPos="189.60" arrivalSpeed="13.85" duration="71.00" routeLength="394.90" waitingTime="17.00" waitingCount="1" stopTime="0.00" timeLoss="42.09" rerouteNo="0" devices="tripinfo_car_1" vType="typeCar" speedFactor="1.00" vaporized=""/>
    <tripinfo id="car_0" depart="0.00" departLane="e2A_0" departPos="5.10" departSpeed="0.00" departDelay="0.00" arrival="72.00" arrivalLane="A2w_0" arrivalPos="189.60" arrivalSpeed="13.70" duration="72.00" routeLength="394.90" waitingTime="18.00" waitingCount="1" stopTime="0.00" timeLoss="43.15" rerouteNo="0" devices="tripinfo_car_0" vType="typeCar" speedFactor="1.00" vaporized=""/>
    <tripinfo id="car_8" depart="16.00" departLane="w2A_0" departPos="5.10" departSpeed="0.00" departDelay="11.00" arrival="73.00" arrivalLane="A2e_1" arrivalPos="189.60" arrivalSpeed="13.69" duration="57.00" routeLength="394.90" waitingTime="2.00" waitingCount="1" stopTime="0.00" timeLoss="27.92" rerouteNo="0" devices="tripinfo_car_8" vType="typeCar" speedFactor="1.00" vaporized=""/>
    <tripinfo id="car_5" depart="15.00" departLane="e2A_0" departPos="5.10" departSpeed="0.00" departDelay="12.00" arrival="73.00" arrivalLane="A2w_1" arrivalPos="189.60" arrivalSpeed="13.57" duration="58.00" routeLength="394.90" waitingTime="4.00" waitingCount="1" stopTime="0.00" timeLoss="29.44" rerouteNo="0" devices="tripinfo_car_5" vType="typeCar" speedFactor="1.00" vaporized=""/>
    <tripinfo id="car_15" depart="26.00" departLane="w2A_0" departPos="5.10" departSpeed="0.00" departDelay="16.00" arrival="74.00" arrivalLane="A2e_1" arrivalPos="189.60" arrivalSpeed="13.67" duration="48.00" routeLength="394.90" waitingTime="1.00" waitingCount="1" stopTime="0.00" timeLoss="19.55" rerouteNo="0" devices="tripinfo_car_15" vType="typeCar" speedFactor="1.00" vaporized=""/>
    <tripinfo id="car_6" depart="11.00" departLane="w2A_0" departPos="5.10" departSpeed="0.00" departDelay="7.00" arrival="74.00" arrivalLane="A2e_0" arrivalPos="189.60" arrivalSpeed="13.56" duration="63.00" routeLength="394.90" waitingTime="8.00" waitingCount="1" stopTime="0.00" timeLoss="34.03" rerouteNo="0" devices="tripinfo_car_6" vType="typeCar" speedFactor="1.00" vaporized=""/>
    <tripinfo id="car_4" depart="10.00" departLane="e2A_0" departPos="5.10" departSpeed="0.00" departDelay="8.00" arrival="74.00" arrivalLane="A2w_0" arrivalPos="189.60" arrivalSpeed="13.60" duration="64.00" routeLength="394.90" waitingTime="10.00" waitingCount="1" stopTime="0.00" timeLoss="35.17" rerouteNo="0" devices="tripinfo_car_4" vType="typeCar" speedFactor="1.00" vaporized=""/>
    <tripinfo id="car_19" depart="32.00" departLane="w2A_0" departPos="5.10" departSpeed="0.00" departDelay="21.00" arrival="76.00" arrivalLane="A2e_1" arrivalPos="189.60" arrivalSpeed="13.62" duration="44.00" routeLength="394.90" waitingTime="0.00" waitingCount="0" stopTime="0.00" timeLoss="15.21" rerouteNo="0" devices="tripinfo_car_19" vType="typeCar" speedFactor="1.00" vaporized=""/>
    <tripinfo id="car_9" depart="25.00" departLane="e2A_0" departPos="5.10" departSpeed="0.00" departDelay="20.00" arrival="76.00" arrivalLane="A2w_1" arrivalPos="189.60" arrivalSpeed="13.61" duration="51.00" routeLength="394.90" waitingTime="0.00" waitingCount="0" stopTime="0.00" timeLoss="21.62" rerouteNo="0" devices="tripinfo_car_9" vType="typeCar" speedFactor="1.00" vaporized=""/>
    <tripinfo id="car_10" depart="21.00" departLane="w2A_0" departPos="5.10" departSpeed="0.00" departDelay="15.00" arrival="76.00" arrivalLane="A2e_0" arrivalPos="189.60" arrivalSpeed="13.60" duration="55.00" routeLength="394.90" waitingTime="0.00" waitingCount="0" stopTime="0.00" timeLoss="25.61" rerouteNo="0" devices="tripinfo_car_10" vType="typeCar" speedFactor="1.00" vaporized=""/>
    <tripinfo id="car_7" depart="20.00" departLane="e2A_0" departPos="5.10" departSpeed="0.00" departDelay="16.00" arrival="76.00" arrivalLane="A2w_0" arrivalPos="189.60" arrivalSpeed="13.84" duration="56.00" routeLength="394.90" waitingTime="0.00" waitingCount="0" stopTime="0.00" timeLoss="27.08" rerouteNo="0" devices="tripinfo_car_7" vType="typeCar" speedFactor="1.00" vaporized=""/>
    <tripinfo id="car_21" depart="37.00" departLane="w2A_0" departPos="5.10" departSpeed="0.00" departDelay="25.00" arrival="77.00" arrivalLane="A2e_0" arrivalPos="189.60" arrivalSpeed="13.76" duration="40.00" routeLength="394.90" waitingTime="0.00" waitingCount="0" stopTime="0.00" timeLoss="11.25" rerouteNo="0" devices="tripinfo_car_21" vType="typeCar" speedFactor="1.00" vaporized=""/>
    <tripinfo id="car_11" depart="31.00" departLane="e2A_0" departPos="5.10" departSpeed="0.00" departDelay="25.00" arrival="78.00" arrivalLane="A2w_0" arrivalPos="189.60" arrivalSpeed="13.54" duration="47.00" routeLength="394.90" waitingTime="0.00" waitingCount="0" stopTime="0.00" timeLoss="17.73" rerouteNo="0" devices="tripinfo_car_11" vType="typeCar" speedFactor="1.00" vaporized=""/>
    <tripinfo id="car_12" depart="36.00" departLane="e2A_0" departPos="5.10" departSpeed="0.00" departDelay="29.00" arrival="79.00" arrivalLane="A2w_0" arrivalPos="189.60" arrivalSpeed="13.69" duration="43.00" routeLength="394.90" waitingTime="0.00" waitingCount="0" stopTime="0.00" timeLoss="14.33" rerouteNo="0" devices="tripinfo_car_12" vType="typeCar" speedFactor="1.00" vaporized=""/>
    <tripinfo id="car_13" depart="41.00" departLane="e2A_0" departPos="5.10" departSpeed="0.00" departDelay="33.00" arrival="82.00" arrivalLane="A2w_0" arrivalPos="189.60" arrivalSpeed="13.61" duration="41.00" routeLength="394.90" waitingTime="0.00" waitingCount="0" stopTime="0.00" timeLoss="11.95" rerouteNo="0" devices="tripinfo_car_13" vType="typeCar" speedFactor="1.00" vaporized=""/>
    <tripinfo id="car_23" depart="42.00" departLane="w2A_0" departPos="5.10" departSpeed="0.00" departDelay="29.00" arrival="83.00" arrivalLane="A2e_0" arrivalPos="189.60" arrivalSpeed="13.57" duration="41.00" routeLength="394.90" waitingTime="0.00" waitingCount="0" stopTime="0.00" timeLoss="11.72" rerouteNo="0" devices="tripinfo_car_23" vType="typeCar" speedFactor="1.00" vaporized=""/>
    <tripinfo id="car_14" depart="46.00" departLane="e2A_0" departPos="5.10" departSpeed="0.00" departDelay="37.00" arrival="86.00" arrivalLane="A2w_0" arrivalPos="189.60" arrivalSpeed="13.72" duration="40.00" routeLength="394.90" waitingTime="0.00" waitingCount="0" stopTime="0.00" timeLoss="10.66" rerouteNo="0" devices="tripinfo_car_14" vType="typeCar" speedFactor="1.00" vaporized=""/>
    <tripinfo id="car_25" depart="47.00" departLane="w2A_0" departPos="5.10" departSpeed="0.00" departDelay="33.00" arrival="87.00" arrivalLane="A2e_0" arrivalPos="189.60" arrivalSpeed="13.63" duration="40.00" routeLength="394.90" waitingTime="0.00" waitingCount="0" stopTime="0.00" timeLoss="10.81" rerouteNo="0" devices="tripinfo_car_25" vType="typeCar" speedFactor="1.00" vaporized=""/>
    <tripinfo id="car_16" depart="51.00" departLane="e2A_0" departPos="5.10" departSpeed="0.00" departDelay="41.00" arrival="91.00" arrivalLane="A2w_0" arrivalPos="189.60" arrivalSpeed="13.60" duration="40.00" routeLength="394.90" waitingTime="0.00" waitingCount="0" stopTime="0.00" timeLoss="10.91" rerouteNo="0" devices="tripinfo_car_16" vType="typeCar" speedFactor="1.00" vaporized=""/>
    <tripinfo id="car_27" depart="52.00" departLane="w2A_0" departPos="5.10" departSpeed="0.00" departDelay="37.00" arrival="92.00" arrivalLane="A2e_0" arrivalPos="189.60" arrivalSpeed="13.56" duration="40.00" routeLength="394.90" waitingTime="0.00" waitingCount="0" stopTime="0.00" timeLoss="11.23" rerouteNo="0" devices="tripinfo_car_27" vType="typeCar" speedFactor="1.00" vaporized=""/>
    <tripinfo id="car_20" depart="56.00" departLane="e2A_0" departPos="5.10" departSpeed="0.00" departDelay="45.00" arrival="96.00" arrivalLane="A2w_0" arrivalPos="189.60" arrivalSpeed="13.61" duration="40.00" routeLength="394.90" waitingTime="0.00" waitingCount="0" stopTime="0.00" timeLoss="10.82" rerouteNo="0" devices="tripinfo_car_20" vType="typeCar" speedFactor="1.00" vaporized=""/>
    <tripinfo id="car_29" depart="57.00" departLane="w2A_0" departPos="5.10" departSpeed="0.00" departDelay="41.00" arrival="97.00" arrivalLane="A2e_0" arrivalPos="189.60" arrivalSpeed="13.64" duration="40.00" routeLength="394.90" waitingTime="0.00" waitingCount="0" stopTime="0.00" timeLoss="11.51" rerouteNo="0" devices="tripinfo_car_29" vType="typeCar" speedFactor="1.00" vaporized=""/>
    <tripinfo id="car_22" depart="61.00" departLane="e2A_0" departPos="5.10" departSpeed="0.00" departDelay="49.00" arrival="102.00" arrivalLane="A2w_0" arrivalPos="189.60" arrivalSpeed="13.62" duration="41.00" routeLength="394.90" waitingTime="0.00" waitingCount="0" stopTime="0.00" timeLoss="11.86" rerouteNo="0" devices="tripinfo_car_22" vType="typeCar" speedFactor="1.00" vaporized=""/>
    <tripinfo id="car_31" depart="62.00" departLane="w2A_0" departPos="5.10" departSpeed="0.00" departDelay="45.00" arrival="104.00" arrivalLane="A2e_0" arrivalPos="189.60" arrivalSpeed="13.77" duration="42.00" routeLength="394.90" waitingTime="0.00" waitingCount="0" stopTime="0.00" timeLoss="13.05" rerouteNo="0" devices="tripinfo_car_31" vType="typeCar" speedFactor="1.00" vaporized=""/>
    <tripinfo id="car_102" depart="62.00" departLane="s2A_0" departPos="5.10" departSpeed="0.00" departDelay="0.00" arrival="115.00" arrivalLane="A2n_1" arrivalPos="189.60" arrivalSpeed="13.78" duration="53.00" routeLength="394.90" waitingTime="1.00" waitingCount="1" stopTime="0.00" timeLoss="24.32" rerouteNo="0" devices="tripinfo_car_102" vType="typeCar" speedFactor="1.00" vaporized=""/>
    <tripinfo id="car_67" depart="40.00" departLane="s2A_0" departPos="5.10" departSpeed="0.00" departDelay="0.00" arrival="115.00" arrivalLane="A2n_0" arrivalPos="189.60" arrivalSpeed="13.64" duration="75.00" routeLength="394.90" waitingTime="23.00" waitingCount="1" stopTime="0.00" timeLoss="46.20" rerouteNo="0" devices="tripinfo_car_67" vType="typeCar" speedFactor="1.00" vaporized=""/>
    <tripinfo id="car_73" depart="44.00" departLane="n2A_0" departPos="5.10" departSpeed="0.00" departDelay="0.00" arrival="116.00" arrivalLane="A2s_1" arrivalPos="189.60" arrivalSpeed="13.57" duration="72.00" routeLength="394.90" waitingTime="18.00" waitingCount="1" stopTime="0.00" timeLoss="43.13" rerouteNo="0" devices="tripinfo_car_73" vType="typeCar" speedFactor="1.00" vaporized=""/>
    <tripinfo id="car_39" depart="22.00" departLane="n2A_0" departPos="5.10" departSpeed="0.00" departDelay="0.00" arrival="116.00" arrivalLane="A2s_0" arrivalPos="189.60" arrivalSpeed="13.84" duration="94.00" routeLength="394.90" waitingTime="41.00" waitingCount="1" stopTime="0.00" timeLoss="64.82" rerouteNo="0" devices="tripinfo_car_39" vType="typeCar" speedFactor="1.00" vaporized=""/>
    <tripinfo id="car_113" depart="67.00" departLane="s2A_0" departPos="5.10" departSpeed="0.00" departDelay="0.00" arrival="117.00" arrivalLane="A2n_0" arrivalPos="189.60" arrivalSpeed="13.52" duration="50.00" routeLength="394.90" waitingTime="0.00" waitingCount="0" stopTime="0.00" timeLoss="21.25" rerouteNo="0" devices="tripinfo_car_113" vType="typeCar" speedFactor="1.00" vaporized=""/>
    <tripinfo id="car_121" depart="72.00" departLane="n2A_0" departPos="5.10" departSpeed="0.00" departDelay="0.00" arrival="118.00" arrivalLane="A2s_1" arrivalPos="189.60" arrivalSpeed="13.60" duration="46.00" routeLength="394.90" waitingTime="0.00" waitingCount="0" stopTime="0.00" timeLoss="16.77" rerouteNo="0" devices="tripinfo_car_121" vType="typeCar" speedFactor="1.00" vaporized=""/>
    <tripinfo id="car_107" depart="64.00" departLane="n2A_0" departPos="5.10" departSpeed="0.00" departDelay="0.00" arrival="118.00" arrivalLane="A2s_0" arrivalPos="189.60" arrivalSpeed="13.51" duration="54.00" routeLength="394.90" waitingTime="1.00" waitingCount="1" stopTime="0.00" timeLoss="25.27" rerouteNo="0" devices="tripinfo_car_107" vType="typeCar" speedFactor="1.00" vaporized=""/>
    <tripinfo id="car_129" depart="77.00" departLane="n2A_0" departPos="5.10" departSpeed="0.00" departDelay="1.00" arrival="119.00" arrivalLane="A2s_1" arrivalPos="189.60" arrivalSpeed="13.79" duration="42.00" routeLength="394.90" waitingTime="0.00" waitingCount="0" stopTime="0.00" timeLoss="13.38" rerouteNo="0" devices="tripinfo_car_129" vType="typeCar" speedFactor="1.00" vaporized=""/>
    <tripinfo id="car_126" depart="75.00" departLane="s2A_0" departPos="5.10" departSpeed="0.00" departDelay="0.00" arrival="119.00" arrivalLane="A2n_0" arrivalPos="189.60" arrivalSpeed="13.68" duration="44.00" routeLength="394.90" waitingTime="0.00" waitingCount="0" stopTime="0.00" timeLoss="14.98" rerouteNo="0" devices="tripinfo_car_126" vType="typeCar" speedFactor="1.00" vaporized=""/>
    <tripinfo id="car_133" depart="82.00" departLane="n2A_0" departPos="5.10" departSpeed="0.00" departDelay="4.00" arrival="122.00" arrivalLane="A2s_0" arrivalPos="189.60" arrivalSpeed="13.58" duration="40.00" routeLength="394.90" waitingTime="0.00" waitingCount="0" stopTime="0.00" timeLoss="11.12" rerouteNo="0" devices="tripinfo_car_133" vType="typeCar" speedFactor="1.00" vaporized=""/>
    <tripinfo id="car_138" depart="87.00" departLane="n2A_0" departPos="5.10" departSpeed="0.00" departDelay="7.00" arrival="128.00" arrivalLane="A2s_0" arrivalPos="189.60" arrivalSpeed="13.67" duration="41.00" routeLength="394.90" waitingTime="0.00" waitingCount="0" stopTime="0.00" timeLoss="12.08" rerouteNo="0" devices="tripinfo_car_138" vType="typeCar" speedFactor="1.00" vaporized=""/>
    <tripinfo id="car_143" depart="92.00" departLane="n2A_0" departPos="5.10" departSpeed="0.00" departDelay="10.00" arrival="133.00" arrivalLane="A2s_0" arrivalPos="189.60" arrivalSpeed="13.61" duration="41.00" routeLength="394.90" waitingTime="0.00" waitingCount="0" stopTime="0.00" timeLoss="12.09" rerouteNo="0" devices="tripinfo_car_143" vType="typeCar" speedFactor="1.00" vaporized=""/>
    <tripinfo id="car_162" depart="98.00" departLane="n2A_0" departPos="5.10" departSpeed="0.00" departDelay="4.00" arrival="138.00" arrivalLane="A2s_0" arrivalPos="189.60" arrivalSpeed="13.80" duration="40.00" routeLength="394.90" waitingTime="0.00" waitingCount="0" stopTime="0.00" timeLoss="11.09" rerouteNo="0" devices="tripinfo_car_162" vType="typeCar" speedFactor="1.00" vaporized=""/>
    <tripinfo id="car_171" depart="99.00" departLane="s2A_0" departPos="5.10" departSpeed="0.00" departDelay="0.00" arrival="140.00" arrivalLane="A2n_0" arrivalPos="189.60" arrivalSpeed="13.61" duration="41.00" routeLength="394.90" waitingTime="0.00" waitingCount="0" stopTime="0.00" timeLoss="12.13" rerouteNo="0" devices="tripinfo_car_171" vType="typeCar" speedFactor="1.00" vaporized=""/>
    <tripinfo id="car_168" depart="103.00" departLane="n2A_0" departPos="5.10" departSpeed="0.00" departDelay="6.00" arrival="143.00" arrivalLane="A2s_0" arrivalPos="189.60" arrivalSpeed="13.55" duration="40.00" routeLength="394.90" waitingTime="0.00" waitingCount="0" stopTime="0.00" timeLoss="11.16" rerouteNo="0" devices="tripinfo_car_168" vType="typeCar" speedFactor="1.00" vaporized=""/>
    <tripinfo id="car_36" depart="73.00" departLane="w2A_0" departPos="5.10" departSpeed="0.00" departDelay="53.00" arrival="161.00" arrivalLane="A2e_1" arrivalPos="189.60" arrivalSpeed="13.63" duration="88.00" routeLength="394.90" waitingTime="36.00" waitingCount="1" stopTime="0.00" timeLoss="59.15" rerouteNo="0" devices="tripinfo_car_36" vType="typeCar" speedFactor="1.00" vaporized=""/>
    <tripinfo id="car_26" depart="71.00" departLane="e2A_0" departPos="5.10" departSpeed="0.00" departDelay="57.00" arrival="161.00" arrivalLane="A2w_1" arrivalPos="189.60" arrivalSpeed="13.84" duration="90.00" routeLength="394.90" waitingTime="38.00" waitingCount="1" stopTime="0.00" timeLoss="61.31" rerouteNo="0" devices="tripinfo_car_26" vType="typeCar" speedFactor="1.00" vaporized=""/>
    <tripinfo id="car_33" depart="68.00" departLane="w2A_0" departPos="5.10" departSpeed="0.00" departDelay="50.00" arrival="161.00" arrivalLane="A2e_0" arrivalPos="189.60" arrivalSpeed="13.88" duration="93.00" routeLength="394.90" waitingTime="40.00" waitingCount="1" stopTime="0.00" timeLoss="64.00" rerouteNo="0" devices="tripinfo_car_33" vType="typeCar" speedFactor="1.00" vaporized=""/>
    <tripinfo id="car_24" depart="66.00" departLane="e2A_0" departPos="5.10" departSpeed="0.00" departDelay="53.00" arrival="161.00" arrivalLane="A2w_0" arrivalPos="189.60" arrivalSpeed="13.66" duration="95.00" routeLength="394.90" waitingTime="42.00" waitingCount="1" stopTime="0.00" timeLoss="65.91" rerouteNo="0" devices="tripinfo_car_24" vType="typeCar" speedFactor="1.00" vaporized=""/>
    <tripinfo id="car_44" depart="83.00" departLane="w2A_0" departPos="5.10" departSpeed="0.00" departDelay="58.00" arrival="163.00" arrivalLane="A2e_1" arrivalPos="189.60" arrivalSpeed="13.67" duration="80.00" routeLength="394.90" waitingTime="23.00" waitingCount="1" stopTime="0.00" timeLoss="51.14" rerouteNo="0" devices="tripinfo_car_44" vType="typeCar" speedFactor="1.00" vaporized=""/>
    <tripinfo id="car_32" depart="81.00" departLane="e2A_0" departPos="5.10" departSpeed="0.00" departDelay="64.00" arrival="163.00" arrivalLane="A2w_1" arrivalPos="189.60" arrivalSpeed="13.64" duration="82.00" routeLength="394.90" waitingTime="27.00" waitingCount="1" stopTime="0.00" timeLoss="53.41" rerouteNo="0" devices="tripinfo_car_32" vType="typeCar" speedFactor="1.00" vaporized=""/>
    <tripinfo id="car_42" depart="78.00" departLane="w2A_0" departPos="5.10" departSpeed="0.00" departDelay="54.00" arrival="163.00" arrivalLane="A2e_0" arrivalPos="189.60" arrivalSpeed="13.86" duration="85.00" routeLength="394.90" waitingTime="29.00" waitingCount="1" stopTime="0.00" timeLoss="55.62" rerouteNo="0" devices="tripinfo_car_42" vType="typeCar" speedFactor="1.00" vaporized=""/>
    <tripinfo id="car_28" depart="76.00" departLane="e2A_0" departPos="5.10" departSpeed="0.00" departDelay="61.00" arrival="163.00" arrivalLane="A2w_0" arrivalPos="189.60" arrivalSpeed="13.60" duration="87.00" routeLength="394.90" waitingTime="32.00" waitingCount="1" stopTime="0.00" timeLoss="58.18" rerouteNo="0" devices="tripinfo_car_28" vType="typeCar" speedFactor="1.00" vaporized=""/>
    <tripinfo id="car_51" depart="94.00" departLane="w2A_0" departPos="5.10" departSpeed="0.00" departDelay="64.00" arrival="165.00" arrivalLane="A2e_1" arrivalPos="189.60" arrivalSpeed="13.83" duration="71.00" routeLength="394.90" waitingTime="17.00" waitingCount="1" stopTime="0.00" timeLoss="41.75" rerouteNo="0" devices="tripinfo_car_51" vType="typeCar" speedFactor="1.00" vaporized=""/>
    <tripinfo id="car_35" depart="91.00" departLane="e2A_0" departPos="5.10" departSpeed="0.00" departDelay="72.00" arrival="165.00" arrivalLane="A2w_1" arrivalPos="189.60" arrivalSpeed="13.52" duration="74.00" routeLength="394.90" waitingTime="19.00" waitingCount="1" stopTime="0.00" timeLoss="45.14" rerouteNo="0" devices="tripinfo_car_35" vType="typeCar" speedFactor="1.00" vaporized=""/>
    <tripinfo id="car_34" depart="86.00" departLane="e2A_0" departPos="5.10" departSpeed="0.00" departDelay="68.00" arrival="165.00" arrivalLane="A2w_0" arrivalPos="189.60" arrivalSpeed="13.64" duration="79.00" routeLength="394.90" waitingTime="25.00" waitingCount="1" stopTime="0.00" timeLoss="50.12" rerouteNo="0" devices="tripinfo_car_34" vType="typeCar" speedFactor="1.00" vaporized=""/>
    <tripinfo id="car_49" depart="89.00" departLane="w2A_0" departPos="5.10" departSpeed="0.00" departDelay="60.00" arrival="166.00" arrivalLane="A2e_0" arrivalPos="189.60" arrivalSpeed="13.55" duration="77.00" routeLength="394.90" waitingTime="23.00" waitingCount="1" stopTime="0.00" timeLoss="47.83" rerouteNo="0" devices="tripinfo_car_49" vType="typeCar" speedFactor="1.00" vaporized=""/>
    <tripinfo id="car_53" depart="104.00" departLane="w2A_0" departPos="5.10" departSpeed="0.00" departDelay="72.00" arrival="167.00" arrivalLane="A2e_1" arrivalPos="189.60" arrivalSpeed="13.55" duration="63.00" routeLength="394.90" waitingTime="8.00" waitingCount="1" stopTime="0.00" timeLoss="33.66" rerouteNo="0" devices="tripinfo_car_53" vType="typeCar" speedFactor="1.00" vaporized=""/>
    <tripinfo id="car_38" depart="101.00" departLane="e2A_0" departPos="5.10" departSpeed="0.00" departDelay="80.00" arrival="167.00" arrivalLane="A2w_1" arrivalPos="189.60" arrivalSpeed="13.70" duration="66.00" routeLength="394.90" waitingTime="11.00" waitingCount="1" stopTime="0.00" timeLoss="37.00" rerouteNo="0" devices="tripinfo_car_38" vType="typeCar" speedFactor="1.00" vaporized=""/>
    <tripinfo id="car_52" depart="99.00" departLane="w2A_0" departPos="5.10" departSpeed="0.00" departDelay="68.00" arrival="167.00" arrivalLane="A2e_0" arrivalPos="189.60" arrivalSpeed="13.84" duration="68.00" routeLength="394.90" waitingTime="13.00" waitingCount="1" stopTime="0.00" timeLoss="39.47" rerouteNo="0" devices="tripinfo_car_52" vType="typeCar" speedFactor="1.00" vaporized=""/>
    <tripinfo id="car_56" depart="114.00" departLane="w2A_0" departPos="5.10" departSpeed="0.00" departDelay="80.00" arrival="168.00" arrivalLane="A2e_1" arrivalPos="189.60" arrivalSpeed="13.66" duration="54.00" routeLength="394.90" waitingTime="0.00" waitingCount="0" stopTime="0.00" timeLoss="25.54" rerouteNo="0" devices="tripinfo_car_56" vType="typeCar" speedFactor="1.00" vaporized=""/>
    <tripinfo id="car_37" depart="96.00" departLane="e2A_0" departPos="5.10" departSpeed="0.00" departDelay="76.00" arrival="168.00" arrivalLane="A2w_0" arrivalPos="189.60" arrivalSpeed="13.52" duration="72.00" routeLength="394.90" waitingTime="17.00" waitingCount="1" stopTime="0.00" timeLoss="43.04" rerouteNo="0" devices="tripinfo_car_37" vType="typeCar" speedFactor="1.00" vaporized=""/>
    <tripinfo id="car_41" depart="111.00" departLane="e2A_0" departPos="5.10" departSpeed="0.00" departDelay="88.00" arrival="169.00" arrivalLane="A2w_1" arrivalPos="189.60" arrivalSpeed="13.79" duration="58.00" routeLength="394.90" waitingTime="3.00" waitingCount="1" stopTime="0.00" timeLoss="28.64" rerouteNo="0" devices="tripinfo_car_41" vType="typeCar" speedFactor="1.00" vaporized=""/>
    <tripinfo id="car_54" depart="109.00" departLane="w2A_0" departPos="5.10" departSpeed="0.00" departDelay="76.00" arrival="169.00" arrivalLane="A2e_0" arrivalPos="189.60" arrivalSpeed="13.76" duration="60.00" routeLength="394.90" waitingTime="6.00" waitingCount="1" stopTime="0.00" timeLoss="31.08" rerouteNo="0" devices="tripinfo_car_54" vType="typeCar" speedFactor="1.00" vaporized=""/>
    <tripinfo id="car_60" depart="124.00" departLane="w2A_0" departPos="5.10" departSpeed="0.00" departDelay="88.00" arrival="170.00" arrivalLane="A2e_1" arrivalPos="189.60" arrivalSpeed="13.68" duration="46.00" routeLength="394.90" waitingTime="0.00" waitingCount="0" stopTime="0.00" timeLoss="17.23" rerouteNo="0" devices="tripinfo_car_60" vType="typeCar" speedFactor="1.00" vaporized=""/>
    <tripinfo id="car_45" depart="121.00" departLane="e2A_0" departPos="5.10" departSpeed="0.00" departDelay="96.00" arrival="170.00" arrivalLane="A2w_1" arrivalPos="189.60" arrivalSpeed="13.53" duration="49.00" routeLength="394.90" waitingTime="0.00" waitingCount="0" stopTime="0.00" timeLoss="20.32" rerouteNo="0" devices="tripinfo_car_45" vType="typeCar" speedFactor="1.00" vaporized=""/>
    <tripinfo id="car_40" depart="106.00" departLane="e2A_0" departPos="5.10" departSpeed="0.00" departDelay="84.00" arrival="170.00" arrivalLane="A2w_0" arrivalPos="189.60" arrivalSpeed="13.64" duration="64.00" routeLength="394.90" waitingTime="8.00" waitingCount="1" stopTime="0.00" timeLoss="34.80" rerouteNo="0" devices="tripinfo_car_40" vType="typeCar" speedFactor="1.00" vaporized=""/>
    <tripinfo id="car_58" depart="119.00" departLane="w2A_0" departPos="5.10" departSpeed="0.00" departDelay="84.00" arrival="171.00" arrivalLane="A2e_0" arrivalPos="189.60" arrivalSpeed="13.69" duration="52.00" routeLength="394.90" waitingTime="0.00" waitingCount="0" stopTime="0.00" timeLoss="22.73" rerouteNo="0" devices="tripinfo_car_58" vType="typeCar" speedFactor="1.00" vaporized=""/>
    <tripinfo id="car_43" depart="116.00" departLane="e2A_0" departPos="5.10" departSpeed="0.00" departDelay="92.00" arrival="171.00" arrivalLane="A2w_0" arrivalPos="189.60" arrivalSpeed="13.51" duration="55.00" routeLength="394.90" waitingTime="0.00" waitingCount="0" stopTime="0.00" timeLoss="26.49" rerouteNo="0" devices="tripinfo_car_43" vType="typeCar" speedFactor="1.00" vaporized=""/>
    <tripinfo id="car_63" depart="129.00" departLane="w2A_0" departPos="5.10" departSpeed="0.00" departDelay="91.00" arrival="172.00" arrivalLane="A2e_1" arrivalPos="189.60" arrivalSpeed="13.58" duration="43.00" routeLength="394.90" waitingTime="0.00" waitingCount="0" stopTime="0.00" timeLoss="13.85" rerouteNo="0" devices="tripinfo_car_63" vType="typeCar" speedFactor="1.00" vaporized=""/>
    <tripinfo id="car_46" depart="126.00" departLane="e2A_0" departPos="5.10" departSpeed="0.00" departDelay="100.00" arrival="172.00" arrivalLane="A2w_1" arrivalPos="189.60" arrivalSpeed="13.78" duration="46.00" routeLength="394.90" waitingTime="0.00" waitingCount="0" stopTime="0.00" timeLoss="16.94" rerouteNo="0" devices="tripinfo_car_46" vType="typeCar" speedFactor="1.00" vaporized=""/>
    <tripinfo id="car_47" depart="131.00" departLane="e2A_0" departPos="5.10" departSpeed="0.00" departDelay="104.00" arrival="173.00" arrivalLane="A2w_0" arrivalPos="189.60" arrivalSpeed="13.78" duration="42.00" routeLength="394.90" waitingTime="1.00" waitingCount="1" stopTime="0.00" timeLoss="13.10" rerouteNo="0" devices="tripinfo_car_47" vType="typeCar" speedFactor="1.00" vaporized=""/>
    <tripinfo id="car_65" depart="134.00" departLane="w2A_0" departPos="5.10" departSpeed="0.00" departDelay="95.00" arrival="174.00" arrivalLane="A2e_0" arrivalPos="189.60" arrivalSpeed="13.56" duration="40.00" routeLength="394.90" waitingTime="0.00" waitingCount="0" stopTime="0.00" timeLoss="11.35" rerouteNo="0" devices="tripinfo_car_65" vType="typeCar" speedFactor="1.00" vaporized=""/>
    <tripinfo id="car_48" depart="137.00" departLane="e2A_0" departPos="5.10" departSpeed="0.00" departDelay="109.00" arrival="178.00" arrivalLane="A2w_0" arrivalPos="189.60" arrivalSpeed="13.53" duration="41.00" routeLength="394.90" waitingTime="0.00" waitingCount="0" stopTime="0.00" timeLoss="12.27" rerouteNo="0" devices="tripinfo_car_48" vType="typeCar" speedFactor="1.00" vaporized=""/>
    <tripinfo id="car_68" depart="139.00" departLane="w2A_0" departPos="5.10" departSpeed="0.00" departDelay="99.00" arrival="179.00" arrivalLane="A2e_0" arrivalPos="189.60" arrivalSpeed="13.80" duration="40.00" routeLength="394.90" waitingTime="0.00" waitingCount="0" stopTime="0.00" timeLoss="11.54" rerouteNo="0" devices="tripinfo_car_68" vType="typeCar" speedFactor="1.00" vaporized=""/>