<?xml version="1.0" encoding="UTF-8"?>

<!-- generated on Fri Sep  7 08:44:03 2018 by Eclipse SUMO GUI Version v0_32_0+2411-189ca3ff4b
<configuration xmlns:xsi="http://www.w3.org/2001/XMLSchema-instance" xsi:noNamespaceSchemaLocation="http://sumo.dlr.de/xsd/sumoConfiguration.xsd">

    <input>
        <net-file value="data/cross.net.xml"/>
        <route-files value="data/cross.rou.xml"/>
        <additional-files value="data/cross.det.xml"/>
    </input>

    <output>
        <tripinfo-output value="tripinfo.xml"/>
    </output>

    <time>
        <begin value="0"/>
    </time>

    <report>
        <verbose value="true"/>
        <no-step-log value="true"/>
    </report>

    <traci_server>
        <remote-port value="54070"/>
    </traci_server>

</configuration>
-->

<detector xmlns:xsi="http://www.w3.org/2001/XMLSchema-instance" xsi:noNamespaceSchemaLocation="http://sumo.dlr.de/xsd/det_e1_file.xsd">
    <tlsState time="0.00" id="A" programID="0" phase="0" state="GGGggrrrrrGGGggrrrrr"/>
    <tlsState time="1.00" id="A" programID="0" phase="0" state="GGGggrrrrrGGGggrrrrr"/>
    <tlsState time="2.00" id="A" programID="0" phase="0" state="GGGggrrrrrGGGggrrrrr"/>
    <tlsState time="3.00" id="A" programID="0" phase="0" state="GGGggrrrrrGGGggrrrrr"/>
    <tlsState time="4.00" id="A" programID="0" phase="0" state="GGGggrrrrrGGGggrrrrr"/>
    <tlsState time="5.00" id="A" programID="0" phase="0" state="GGGggrrrrrGGGggrrrrr"/>
    <tlsState time="6.00" id="A" programID="0" phase="0" state="GGGggrrrrrGGGggrrrrr"/>
    <tlsState time="7.00" id="A" programID="0" phase="0" state="GGGggrrrrrGGGggrrrrr"/>
    <tlsState time="8.00" id="A" programID="0" phase="0" state="GGGggrrrrrGGGggrrrrr"/>
    <tlsState time="9.00" id="A" programID="0" phase="0" state="GGGggrrrrrGGGggrrrrr"/>
    <interval begin="0.00" end="10.00" id="nA0" nVehContrib="0" flow="0.00" occupancy="0.00" speed="-1.00" length="-1.00" nVehEntered="0"/>
    <interval begin="0.00" end="10.00" id="nA1" nVehContrib="0" flow="0.00" occupancy="0.00" speed="-1.00" length="-1.00" nVehEntered="0"/>
   <interval begin="0.00" end="10.00" id="wA0" sampledSeconds="0.00" nVehEntered="0" nVehLeft="0" nVehSeen="0" meanSpeed="-1.00" meanTimeLoss="-1.00" meanOccupancy="0.00" maxOccupancy="0.00" meanMaxJamLengthInVehicles="0.00" meanMaxJamLengthInMeters="0.00" maxJamLengthInVehicles="0" maxJamLengthInMeters="0.00" jamLengthInVehiclesSum="0" jamLengthInMetersSum="0.00" meanHaltingDuration="0.00" maxHaltingDuration="0.00" haltingDurationSum="0.00" meanIntervalHaltingDuration="0.00" maxIntervalHaltingDuration="0.00" intervalHaltingDurationSum="0.00" startedHalts="0.00" meanVehicleNumber="0.00" maxVehicleNumber="0" />
    <tlsState time="10.00" id="A" programID="0" phase="0" state="GGGggrrrrrGGGggrrrrr"/>
    <tlsState time="11.00" id="A" programID="0" phase="0" state="GGGggrrrrrGGGggrrrrr"/>
    <tlsState time="12.00" id="A" programID="0" phase="0" state="GGGggrrrrrGGGggrrrrr"/>
    <tlsState time="13.00" id="A" programID="0" phase="0" state="GGGggrrrrrGGGggrrrrr"/>
    <tlsState time="14.00" id="A" programID="0" phase="0" state="GGGggrrrrrGGGggrrrrr"/>
    <tlsState time="15.00" id="A" programID="0" phase="0" state="GGGggrrrrrGGGggrrrrr"/>
    <tlsState time="16.00" id="A" programID="0" phase="0" state="GGGggrrrrrGGGggrrrrr"/>
    <tlsState time="17.00" id="A" programID="0" phase="0" state="GGGggrrrrrGGGggrrrrr"/>
    <tlsState time="18.00" id="A" programID="0" phase="0" state="GGGggrrrrrGGGggrrrrr"/>
    <tlsState time="19.00" id="A" programID="0" phase="0" state="GGGggrrrrrGGGggrrrrr"/>
    <interval begin="10.00" end="20.00" id="nA0" nVehContrib="0" flow="0.00" occupancy="0.00" speed="-1.00" length="-1.00" nVehEntered="0"/>
    <interval begin="10.00" end="20.00" id="nA1" nVehContrib="0" flow="0.00" occupancy="0.00" speed="-1.00" length="-1.00" nVehEntered="0"/>
   <interval begin="10.00" end="20.00" id="wA0" sampledSeconds="0.00" nVehEntered="0" nVehLeft="0" nVehSeen="0" meanSpeed="-1.00" meanTimeLoss="-1.00" meanOccupancy="0.00" maxOccupancy="0.00" meanMaxJamLengthInVehicles="0.00" meanMaxJamLengthInMeters="0.00" maxJamLengthInVehicles="0" maxJamLengthInMeters="0.00" jamLengthInVehiclesSum="0" jamLengthInMetersSum="0.00" meanHaltingDuration="0.00" maxHaltingDuration="0.00" haltingDurationSum="0.00" meanIntervalHaltingDuration="0.00" maxIntervalHaltingDuration="0.00" intervalHaltingDurationSum="0.00" startedHalts="0.00" meanVehicleNumber="0.00" maxVehicleNumber="0" />
    <tlsState time="20.00" id="A" programID="0" phase="0" state="GGGggrrrrrGGGggrrrrr"/>
    <tlsState time="21.00" id="A" programID="0" phase="0" state="GGGggrrrrrGGGggrrrrr"/>
    <tlsState time="22.00" id="A" programID="0" phase="0" state="GGGggrrrrrGGGggrrrrr"/>
    <tlsState time="23.00" id="A" programID="0" phase="0" state="GGGggrrrrrGGGggrrrrr"/>
    <tlsState time="24.00" id="A" programID="0" phase="0" state="GGGggrrrrrGGGggrrrrr"/>
    <tlsState time="25.00" id="A" programID="0" phase="0" state="GGGggrrrrrGGGggrrrrr"/>
    <tlsState time="26.00" id="A" programID="0" phase="0" state="GGGggrrrrrGGGggrrrrr"/>
    <tlsState time="27.00" id="A" programID="0" phase="0" state="GGGggrrrrrGGGggrrrrr"/>
    <tlsState time="28.00" id="A" programID="0" phase="0" state="GGGggrrrrrGGGggrrrrr"/>
    <tlsState time="29.00" id="A" programID="0" phase="0" state="GGGggrrrrrGGGggrrrrr"/>
    <interval begin="20.00" end="30.00" id="nA0" nVehContrib="1" flow="360.00" occupancy="3.67" speed="13.64" length="5.00" nVehEntered="1"/>
    <interval begin="20.00" end="30.00" id="nA1" nVehContrib="0" flow="0.00" occupancy="0.00" speed="-1.00" length="-1.00" nVehEntered="0"/>
   <interval begin="20.00" end="30.00" id="wA0" sampledSeconds="4.13" nVehEntered="2" nVehLeft="2" nVehSeen="2" meanSpeed="11.77" meanTimeLoss="0.31" meanOccupancy="5.52" maxOccupancy="16.67" meanMaxJamLengthInVehicles="0.00" meanMaxJamLengthInMeters="0.00" maxJamLengthInVehicles="0" maxJamLengthInMeters="0.00" jamLengthInVehiclesSum="0" jamLengthInMetersSum="0.00" meanHaltingDuration="0.00" maxHaltingDuration="0.00" haltingDurationSum="0.00" meanIntervalHaltingDuration="0.00" maxIntervalHaltingDuration="0.00" intervalHaltingDurationSum="0.00" startedHalts="0.00" meanVehicleNumber="0.60" maxVehicleNumber="1" />
    <tlsState time="30.00" id="A" programID="0" phase="0" state="GGGggrrrrrGGGggrrrrr"/>
    <tlsState time="31.00" id="A" programID="0" phase="0" state="GGGggrrrrrGGGggrrrrr"/>
    <tlsState time="32.00" id="A" programID="0" phase="0" state="GGGggrrrrrGGGggrrrrr"/>
    <tlsState time="33.00" id="A" programID="0" phase="0" state="GGGggrrrrrGGGggrrrrr"/>
    <tlsState time="34.00" id="A" programID="0" phase="0" state="GGGggrrrrrGGGggrrrrr"/>
    <tlsState time="35.00" id="A" programID="0" phase="0" state="GGGggrrrrrGGGggrrrrr"/>
    <tlsState time="36.00" id="A" programID="0" phase="0" state="GGGggrrrrrGGGggrrrrr"/>
    <tlsState time="37.00" id="A" programID="0" phase="0" state="GGGggrrrrrGGGggrrrrr"/>
    <tlsState time="38.00" id="A" programID="0" phase="0" state="GGGggrrrrrGGGggrrrrr"/>
    <tlsState time="39.00" id="A" programID="0" phase="0" state="GGGggrrrrrGGGggrrrrr"/>
    <interval begin="30.00" end="40.00" id="nA0" nVehContrib="1" flow="360.00" occupancy="3.64" speed="13.73" length="5.00" nVehEntered="1"/>
    <interval begin="30.00" end="40.00" id="nA1" nVehContrib="0" flow="0.00" occupancy="0.00" speed="-1.00" length="-1.00" nVehEntered="0"/>
   <interval begin="30.00" end="40.00" id="wA0" sampledSeconds="8.18" nVehEntered="2" nVehLeft="0" nVehSeen="2" meanSpeed="4.77" meanTimeLoss="2.69" meanOccupancy="13.18" maxOccupancy="29.67" meanMaxJamLengthInVehicles="0.30" meanMaxJamLengthInMeters="1.17" maxJamLengthInVehicles="1" maxJamLengthInMeters="3.90" jamLengthInVehiclesSum="3" jamLengthInMetersSum="11.71" meanHaltingDuration="4.00" maxHaltingDuration="4.00" haltingDurationSum="4.00" meanIntervalHaltingDuration="4.00" maxIntervalHaltingDuration="4.00" intervalHaltingDurationSum="4.00" startedHalts="1.00" meanVehicleNumber="0.90" maxVehicleNumber="2" />
    <tlsState time="40.00" id="A" programID="0" phase="0" state="GGGggrrrrrGGGggrrrrr"/>
    <tlsState time="41.00" id="A" programID="0" phase="0" state="GGGggrrrrrGGGggrrrrr"/>
    <tlsState time="42.00" id="A" programID="0" phase="1" state="yyyyyrrrrryyyyyrrrrr"/>
    <tlsState time="43.00" id="A" programID="0" phase="1" state="yyyyyrrrrryyyyyrrrrr"/>
    <tlsState time="44.00" id="A" programID="0" phase="1" state="yyyyyrrrrryyyyyrrrrr"/>
    <tlsState time="45.00" id="A" programID="0" phase="2" state="rrrrrGGGggrrrrrGGGgg"/>
    <tlsState time="46.00" id="A" programID="0" phase="2" state="rrrrrGGGggrrrrrGGGgg"/>
    <tlsState time="47.00" id="A" programID="0" phase="2" state="rrrrrGGGggrrrrrGGGgg"/>
    <tlsState time="48.00" id="A" programID="0" phase="2" state="rrrrrGGGggrrrrrGGGgg"/>
    <tlsState time="49.00" id="A" programID="0" phase="2" state="rrrrrGGGggrrrrrGGGgg"/>
    <interval begin="40.00" end="50.00" id="nA0" nVehContrib="1" flow="360.00" occupancy="4.58" speed="10.91" length="5.00" nVehEntered="1"/>
    <interval begin="40.00" end="50.00" id="nA1" nVehContrib="0" flow="0.00" occupancy="0.00" speed="-1.00" length="-1.00" nVehEntered="0"/>
   <interval begin="40.00" end="50.00" id="wA0" sampledSeconds="18.36" nVehEntered="1" nVehLeft="2" nVehSeen="3" meanSpeed="2.46" meanTimeLoss="5.03" meanOccupancy="25.22" maxOccupancy="29.67" meanMaxJamLengthInVehicles="1.00" meanMaxJamLengthInMeters="4.56" maxJamLengthInVehicles="2" maxJamLengthInMeters="13.70" jamLengthInVehiclesSum="10" jamLengthInMetersSum="45.59" meanHaltingDuration="7.50" maxHaltingDuration="12.00" haltingDurationSum="15.00" meanIntervalHaltingDuration="5.50" maxIntervalHaltingDuration="8.00" intervalHaltingDurationSum="11.00" startedHalts="1.00" meanVehicleNumber="2.00" maxVehicleNumber="2" />
    <tlsState time="50.00" id="A" programID="0" phase="2" state="rrrrrGGGggrrrrrGGGgg"/>
    <tlsState time="51.00" id="A" programID="0" phase="2" state="rrrrrGGGggrrrrrGGGgg"/>
    <tlsState time="52.00" id="A" programID="0" phase="2" state="rrrrrGGGggrrrrrGGGgg"/>
    <tlsState time="53.00" id="A" programID="0" phase="2" state="rrrrrGGGggrrrrrGGGgg"/>
    <tlsState time="54.00" id="A" programID="0" phase="2" state="rrrrrGGGggrrrrrGGGgg"/>
    <tlsState time="55.00" id="A" programID="0" phase="2" state="rrrrrGGGggrrrrrGGGgg"/>
    <tlsState time="56.00" id="A" programID="0" phase="2" state="rrrrrGGGggrrrrrGGGgg"/>
    <tlsState time="57.00" id="A" programID="0" phase="2" state="rrrrrGGGggrrrrrGGGgg"/>
    <tlsState time="58.00" id="A" programID="0" phase="2" state="rrrrrGGGggrrrrrGGGgg"/>
    <tlsState time="59.00" id="A" programID="0" phase="2" state="rrrrrGGGggrrrrrGGGgg"/>
    <interval begin="50.00" end="60.00" id="nA0" nVehContrib="0" flow="0.00" occupancy="0.00" speed="-1.00" length="-1.00" nVehEntered="0"/>
    <interval begin="50.00" end="60.00" id="nA1" nVehContrib="0" flow="0.00" occupancy="0.00" speed="-1.00" length="-1.00" nVehEntered="0"/>
   <interval begin="50.00" end="60.00" id="wA0" sampledSeconds="7.86" nVehEntered="2" nVehLeft="2" nVehSeen="3" meanSpeed="7.39" meanTimeLoss="1.23" meanOccupancy="10.31" maxOccupancy="16.67" meanMaxJamLengthInVehicles="0.00" meanMaxJamLengthInMeters="0.00" maxJamLengthInVehicles="0" maxJamLengthInMeters="0.00" jamLengthInVehiclesSum="0" jamLengthInMetersSum="0.00" meanHaltingDuration="0.00" maxHaltingDuration="0.00" haltingDurationSum="0.00" meanIntervalHaltingDuration="0.00" maxIntervalHaltingDuration="0.00" intervalHaltingDurationSum="0.00" startedHalts="0.00" meanVehicleNumber="1.00" maxVehicleNumber="2" />
    <tlsState time="60.00" id="A" programID="0" phase="2" state="rrrrrGGGggrrrrrGGGgg"/>
    <tlsState time="61.00" id="A" programID="0" phase="2" state="rrrrrGGGggrrrrrGGGgg"/>
    <tlsState time="62.00" id="A" programID="0" phase="2" state="rrrrrGGGggrrrrrGGGgg"/>
    <tlsState time="63.00" id="A" programID="0" phase="2" state="rrrrrGGGggrrrrrGGGgg"/>
    <tlsState time="64.00" id="A" programID="0" phase="2" state="rrrrrGGGggrrrrrGGGgg"/>
    <tlsState time="65.00" id="A" programID="0" phase="2" state="rrrrrGGGggrrrrrGGGgg"/>
    <tlsState time="66.00" id="A" programID="0" phase="2" state="rrrrrGGGggrrrrrGGGgg"/>
    <tlsState time="67.00" id="A" programID="0" phase="2" state="rrrrrGGGggrrrrrGGGgg"/>
    <tlsState time="68.00" id="A" programID="0" phase="2" state="rrrrrGGGggrrrrrGGGgg"/>
    <tlsState time="69.00" id="A" programID="0" phase="2" state="rrrrrGGGggrrrrrGGGgg"/>
    <interval begin="60.00" end="70.00" id="nA0" nVehContrib="0" flow="0.00" occupancy="0.00" speed="-1.00" length="-1.00" nVehEntered="0"/>
    <interval begin="60.00" end="70.00" id="nA1" nVehContrib="1" flow="360.00" occupancy="4.09" speed="12.22" length="5.00" nVehEntered="1"/>
   <interval begin="60.00" end="70.00" id="wA0" sampledSeconds="6.51" nVehEntered="2" nVehLeft="2" nVehSeen="3" meanSpeed="13.66" meanTimeLoss="0.04" meanOccupancy="9.71" maxOccupancy="16.67" meanMaxJamLengthInVehicles="0.00" meanMaxJamLengthInMeters="0.00" maxJamLengthInVehicles="0" maxJamLengthInMeters="0.00" jamLengthInVehiclesSum="0" jamLengthInMetersSum="0.00" meanHaltingDuration="0.00" maxHaltingDuration="0.00" haltingDurationSum="0.00" meanIntervalHaltingDuration="0.00" maxIntervalHaltingDuration="0.00" intervalHaltingDurationSum="0.00" startedHalts="0.00" meanVehicleNumber="0.90" maxVehicleNumber="1" />
    <tlsState time="70.00" id="A" programID="0" phase="2" state="rrrrrGGGggrrrrrGGGgg"/>
    <tlsState time="71.00" id="A" programID="0" phase="2" state="rrrrrGGGggrrrrrGGGgg"/>
    <tlsState time="72.00" id="A" programID="0" phase="2" state="rrrrrGGGggrrrrrGGGgg"/>
    <tlsState time="73.00" id="A" programID="0" phase="2" state="rrrrrGGGggrrrrrGGGgg"/>
    <tlsState time="74.00" id="A" programID="0" phase="2" state="rrrrrGGGggrrrrrGGGgg"/>
    <tlsState time="75.00" id="A" programID="0" phase="2" state="rrrrrGGGggrrrrrGGGgg"/>
    <tlsState time="76.00" id="A" programID="0" phase="2" state="rrrrrGGGggrrrrrGGGgg"/>
    <tlsState time="77.00" id="A" programID="0" phase="2" state="rrrrrGGGggrrrrrGGGgg"/>
    <tlsState time="78.00" id="A" programID="0" phase="2" state="rrrrrGGGggrrrrrGGGgg"/>
    <tlsState time="79.00" id="A" programID="0" phase="2" state="rrrrrGGGggrrrrrGGGgg"/>
    <interval begin="70.00" end="80.00" id="nA0" nVehContrib="1" flow="360.00" occupancy="5.51" speed="9.07" length="5.00" nVehEntered="1"/>
    <interval begin="70.00" end="80.00" id="nA1" nVehContrib="0" flow="0.00" occupancy="0.00" speed="-1.00" length="-1.00" nVehEntered="0"/>
   <interval begin="70.00" end="80.00" id="wA0" sampledSeconds="3.98" nVehEntered="2" nVehLeft="2" nVehSeen="3" meanSpeed="13.66" meanTimeLoss="0.02" meanOccupancy="6.47" maxOccupancy="16.67" meanMaxJamLengthInVehicles="0.00" meanMaxJamLengthInMeters="0.00" maxJamLengthInVehicles="0" maxJamLengthInMeters="0.00" jamLengthInVehiclesSum="0" jamLengthInMetersSum="0.00" meanHaltingDuration="0.00" maxHaltingDuration="0.00" haltingDurationSum="0.00" meanIntervalHaltingDuration="0.00" maxIntervalHaltingDuration="0.00" intervalHaltingDurationSum="0.00" startedHalts="0.00" meanVehicleNumber="0.60" maxVehicleNumber="1" />
    <tlsState time="80.00" id="A" programID="0" phase="2" state="rrrrrGGGggrrrrrGGGgg"/>
    <tlsState time="81.00" id="A" programID="0" phase="2" state="rrrrrGGGggrrrrrGGGgg"/>
    <tlsState time="82.00" id="A" programID="0" phase="2" state="rrrrrGGGggrrrrrGGGgg"/>
    <tlsState time="83.00" id="A" programID="0" phase="2" state="rrrrrGGGggrrrrrGGGgg"/>
    <tlsState time="84.00" id="A" programID="0" phase="2" state="rrrrrGGGggrrrrrGGGgg"/>
    <tlsState time="85.00" id="A" programID="0" phase="2" state="rrrrrGGGggrrrrrGGGgg"/>
    <tlsState time="86.00" id="A" programID="0" phase="2" state="rrrrrGGGggrrrrrGGGgg"/>
    <tlsState time="87.00" id="A" programID="0" phase="3" state="rrrrryyyyyrrrrryyyyy"/>
    <tlsState time="88.00" id="A" programID="0" phase="3" state="rrrrryyyyyrrrrryyyyy"/>
    <tlsState time="89.00" id="A" programID="0" phase="3" state="rrrrryyyyyrrrrryyyyy"/>
    <interval begin="80.00" end="90.00" id="nA0" nVehContrib="0" flow="0.00" occupancy="18.19" speed="-1.00" length="-1.00" nVehEntered="2"/>
    <interval begin="80.00" end="90.00" id="nA1" nVehContrib="1" flow="360.00" occupancy="12.28" speed="4.07" length="5.00" nVehEntered="1"/>
   <interval begin="80.00" end="90.00" id="wA0" sampledSeconds="5.81" nVehEntered="2" nVehLeft="2" nVehSeen="3" meanSpeed="13.42" meanTimeLoss="0.06" meanOccupancy="7.78" maxOccupancy="16.67" meanMaxJamLengthInVehicles="0.00" meanMaxJamLengthInMeters="0.00" maxJamLengthInVehicles="0" maxJamLengthInMeters="0.00" jamLengthInVehiclesSum="0" jamLengthInMetersSum="0.00" meanHaltingDuration="0.00" maxHaltingDuration="0.00" haltingDurationSum="0.00" meanIntervalHaltingDuration="0.00" maxIntervalHaltingDuration="0.00" intervalHaltingDurationSum="0.00" startedHalts="0.00" meanVehicleNumber="0.80" maxVehicleNumber="1" />
    <tlsState time="90.00" id="A" programID="0" phase="0" state="GGGggrrrrrGGGggrrrrr"/>
    <tlsState time="91.00" id="A" programID="0" phase="0" state="GGGggrrrrrGGGggrrrrr"/>
    <tlsState time="92.00" id="A" programID="0" phase="0" state="GGGggrrrrrGGGggrrrrr"/>
    <tlsState time="93.00" id="A" programID="0" phase="0" state="GGGggrrrrrGGGggrrrrr"/>
    <tlsState time="94.00" id="A" programID="0" phase="0" state="GGGggrrrrrGGGggrrrrr"/>
    <tlsState time="95.00" id="A" programID="0" phase="0" state="GGGggrrrrrGGGggrrrrr"/>
    <tlsState time="96.00" id="A" programID="0" phase="0" state="GGGggrrrrrGGGggrrrrr"/>
    <tlsState time="97.00" id="A" programID="0" phase="0" state="GGGggrrrrrGGGggrrrrr"/>
    <tlsState time="98.00" id="A" programID="0" phase="0" state="GGGggrrrrrGGGggrrrrr"/>
    <tlsState time="99.00" id="A" programID="0" phase="0" state="GGGggrrrrrGGGggrrrrr"/>
    <interval begin="90.00" end="100.00" id="nA0" nVehContrib="1" flow="360.00" occupancy="39.63" speed="0.86" length="5.00" nVehEntered="0"/>
    <interval begin="90.00" end="100.00" id="nA1" nVehContrib="1" flow="360.00" occupancy="5.64" speed="8.87" length="5.00" nVehEntered="1"/>
   <interval begin="90.00" end="100.00" id="wA0" sampledSeconds="4.70" nVehEntered="2" nVehLeft="2" nVehSeen="3" meanSpeed="11.17" meanTimeLoss="0.31" meanOccupancy="6.83" maxOccupancy="16.67" meanMaxJamLengthInVehicles="0.00" meanMaxJamLengthInMeters="0.00" maxJamLengthInVehicles="0" maxJamLengthInMeters="0.00" jamLengthInVehiclesSum="0" jamLengthInMetersSum="0.00" meanHaltingDuration="0.00" maxHaltingDuration="0.00" haltingDurationSum="0.00" meanIntervalHaltingDuration="0.00" maxIntervalHaltingDuration="0.00" intervalHaltingDurationSum="0.00" startedHalts="0.00" meanVehicleNumber="0.60" maxVehicleNumber="1" />
    <tlsState time="100.00" id="A" programID="0" phase="0" state="GGGggrrrrrGGGggrrrrr"/>
    <tlsState time="101.00" id="A" programID="0" phase="0" state="GGGggrrrrrGGGggrrrrr"/>
    <tlsState time="102.00" id="A" programID="0" phase="0" state="GGGggrrrrrGGGggrrrrr"/>
    <tlsState time="103.00" id="A" programID="0" phase="0" state="GGGggrrrrrGGGggrrrrr"/>
    <tlsState time="104.00" id="A" programID="0" phase="0" state="GGGggrrrrrGGGggrrrrr"/>
    <tlsState time="105.00" id="A" programID="0" phase="0" state="GGGggrrrrrGGGggrrrrr"/>
    <tlsState time="106.00" id="A" programID="0" phase="0" state="GGGggrrrrrGGGggrrrrr"/>
    <tlsState time="107.00" id="A" programID="0" phase="0" state="GGGggrrrrrGGGggrrrrr"/>
    <tlsState time="108.00" id="A" programID="0" phase="0" state="GGGggrrrrrGGGggrrrrr"/>
    <tlsState time="109.00" id="A" programID="0" phase="0" state="GGGggrrrrrGGGggrrrrr"/>
    <interval begin="100.00" end="110.00" id="nA0" nVehContrib="2" flow="720.00" occupancy="7.23" speed="13.83" length="5.00" nVehEntered="2"/>
    <interval begin="100.00" end="110.00" id="nA1" nVehContrib="0" flow="0.00" occupancy="0.00" speed="-1.00" length="-1.00" nVehEntered="0"/>
   <interval begin="100.00" end="110.00" id="wA0" sampledSeconds="13.93" nVehEntered="2" nVehLeft="1" nVehSeen="3" meanSpeed="3.47" meanTimeLoss="3.49" meanOccupancy="21.79" maxOccupancy="29.68" meanMaxJamLengthInVehicles="0.70" meanMaxJamLengthInMeters="2.73" maxJamLengthInVehicles="1" maxJamLengthInMeters="3.90" jamLengthInVehiclesSum="7" jamLengthInMetersSum="27.32" meanHaltingDuration="8.00" maxHaltingDuration="8.00" haltingDurationSum="8.00" meanIntervalHaltingDuration="8.00" maxIntervalHaltingDuration="8.00" intervalHaltingDurationSum="8.00" startedHalts="1.00" meanVehicleNumber="1.50" maxVehicleNumber="2" />
    <tlsState time="110.00" id="A" programID="0" phase="0" state="GGGggrrrrrGGGggrrrrr"/>
    <tlsState time="111.00" id="A" programID="0" phase="0" state="GGGggrrrrrGGGggrrrrr"/>
    <tlsState time="112.00" id="A" programID="0" phase="0" state="GGGggrrrrrGGGggrrrrr"/>
    <tlsState time="113.00" id="A" programID="0" phase="0" state="GGGggrrrrrGGGggrrrrr"/>
    <tlsState time="114.00" id="A" programID="0" phase="0" state="GGGggrrrrrGGGggrrrrr"/>
    <tlsState time="115.00" id="A" programID="0" phase="0" state="GGGggrrrrrGGGggrrrrr"/>
    <tlsState time="116.00" id="A" programID="0" phase="0" state="GGGggrrrrrGGGggrrrrr"/>
    <tlsState time="117.00" id="A" programID="0" phase="0" state="GGGggrrrrrGGGggrrrrr"/>
    <tlsState time="118.00" id="A" programID="0" phase="0" state="GGGggrrrrrGGGggrrrrr"/>
    <tlsState time="119.00" id="A" programID="0" phase="0" state="GGGggrrrrrGGGggrrrrr"/>
    <interval begin="110.00" end="120.00" id="nA0" nVehContrib="1" flow="360.00" occupancy="3.66" speed="13.67" length="5.00" nVehEntered="1"/>
    <interval begin="110.00" end="120.00" id="nA1" nVehContrib="0" flow="0.00" occupancy="0.00" speed="-1.00" length="-1.00" nVehEntered="0"/>
   <interval begin="110.00" end="120.00" id="wA0" sampledSeconds="22.59" nVehEntered="2" nVehLeft="1" nVehSeen="4" meanSpeed="1.29" meanTimeLoss="5.12" meanOccupancy="34.67" maxOccupancy="46.34" meanMaxJamLengthInVehicles="1.80" meanMaxJamLengthInMeters="10.78" maxJamLengthInVehicles="2" maxJamLengthInMeters="12.52" jamLengthInVehiclesSum="18" jamLengthInMetersSum="107.84" meanHaltingDuration="13.50" maxHaltingDuration="18.00" haltingDurationSum="27.00" meanIntervalHaltingDuration="9.50" maxIntervalHaltingDuration="10.00" intervalHaltingDurationSum="19.00" startedHalts="1.00" meanVehicleNumber="2.30" maxVehicleNumber="3" />
    <tlsState time="120.00" id="A" programID="0" phase="0" state="GGGggrrrrrGGGggrrrrr"/>
    <tlsState time="121.00" id="A" programID="0" phase="0" state="GGGggrrrrrGGGggrrrrr"/>
    <tlsState time="122.00" id="A" programID="0" phase="0" state="GGGggrrrrrGGGggrrrrr"/>
    <tlsState time="123.00" id="A" programID="0" phase="0" state="GGGggrrrrrGGGggrrrrr"/>
    <tlsState time="124.00" id="A" programID="0" phase="0" state="GGGggrrrrrGGGggrrrrr"/>
    <tlsState time="125.00" id="A" programID="0" phase="0" state="GGGggrrrrrGGGggrrrrr"/>
    <tlsState time="126.00" id="A" programID="0" phase="0" state="GGGggrrrrrGGGggrrrrr"/>
    <tlsState time="127.00" id="A" programID="0" phase="0" state="GGGggrrrrrGGGggrrrrr"/>
    <tlsState time="128.00" id="A" programID="0" phase="0" state="GGGggrrrrrGGGggrrrrr"/>
    <tlsState time="129.00" id="A" programID="0" phase="0" state="GGGggrrrrrGGGggrrrrr"/>
    <interval begin="120.00" end="130.00" id="nA0" nVehContrib="1" flow="360.00" occupancy="3.70" speed="13.53" length="5.00" nVehEntered="1"/>
    <interval begin="120.00" end="130.00" id="nA1" nVehContrib="0" flow="0.00" occupancy="0.00" speed="-1.00" length="-1.00" nVehEntered="0"/>
   <interval begin="120.00" end="130.00" id="wA0" sampledSeconds="31.09" nVehEntered="1" nVehLeft="1" nVehSeen="4" meanSpeed="0.47" meanTimeLoss="7.51" meanOccupancy="48.31" maxOccupancy="63.01" meanMaxJamLengthInVehicles="2.70" meanMaxJamLengthInMeters="17.75" maxJamLengthInVehicles="3" maxJamLengthInMeters="20.00" jamLengthInVehiclesSum="27" jamLengthInMetersSum="177.52" meanHaltingDuration="18.33" maxHaltingDuration="28.00" haltingDurationSum="55.00" meanIntervalHaltingDuration="9.33" maxIntervalHaltingDuration="10.00" intervalHaltingDurationSum="28.00" startedHalts="1.00" meanVehicleNumber="3.20" maxVehicleNumber="4" />
    <tlsState time="130.00" id="A" programID="0" phase="0" state="GGGggrrrrrGGGggrrrrr"/>
    <tlsState time="131.00" id="A" programID="0" phase="0" state="GGGggrrrrrGGGggrrrrr"/>
    <tlsState time="132.00" id="A" programID="0" phase="1" state="yyyyyrrrrryyyyyrrrrr"/>
    <tlsState time="133.00" id="A" programID="0" phase="1" state="yyyyyrrrrryyyyyrrrrr"/>
    <tlsState time="134.00" id="A" programID="0" phase="1" state="yyyyyrrrrryyyyyrrrrr"/>
    <tlsState time="135.00" id="A" programID="0" phase="2" state="rrrrrGGGggrrrrrGGGgg"/>
    <tlsState time="136.00" id="A" programID="0" phase="2" state="rrrrrGGGggrrrrrGGGgg"/>
    <tlsState time="137.00" id="A" programID="0" phase="2" state="rrrrrGGGggrrrrrGGGgg"/>
    <tlsState time="138.00" id="A" programID="0" phase="2" state="rrrrrGGGggrrrrrGGGgg"/>
    <tlsState time="139.00" id="A" programID="0" phase="2" state="rrrrrGGGggrrrrrGGGgg"/>
    <interval begin="130.00" end="140.00" id="nA0" nVehContrib="0" flow="0.00" occupancy="0.00" speed="-1.00" length="-1.00" nVehEntered="0"/>
    <interval begin="130.00" end="140.00" id="nA1" nVehContrib="0" flow="0.00" occupancy="0.00" speed="-1.00" length="-1.00" nVehEntered="0"/>
   <interval begin="130.00" end="140.00" id="wA0" sampledSeconds="39.62" nVehEntered="2" nVehLeft="2" nVehSeen="5" meanSpeed="0.40" meanTimeLoss="7.69" meanOccupancy="60.57" maxOccupancy="65.31" meanMaxJamLengthInVehicles="3.50" meanMaxJamLengthInMeters="24.16" maxJamLengthInVehicles="4" maxJamLengthInMeters="28.67" jamLengthInVehiclesSum="35" jamLengthInMetersSum="241.63" meanHaltingDuration="22.75" maxHaltingDuration="36.00" haltingDurationSum="91.00" meanIntervalHaltingDuration="9.00" maxIntervalHaltingDuration="10.00" intervalHaltingDurationSum="36.00" startedHalts="1.00" meanVehicleNumber="4.10" maxVehicleNumber="5" />
    <tlsState time="140.00" id="A" programID="0" phase="2" state="rrrrrGGGggrrrrrGGGgg"/>
    <tlsState time="141.00" id="A" programID="0" phase="2" state="rrrrrGGGggrrrrrGGGgg"/>
    <tlsState time="142.00" id="A" programID="0" phase="2" state="rrrrrGGGggrrrrrGGGgg"/>
    <tlsState time="143.00" id="A" programID="0" phase="2" state="rrrrrGGGggrrrrrGGGgg"/>
    <tlsState time="144.00" id="A" programID="0" phase="2" state="rrrrrGGGggrrrrrGGGgg"/>
    <tlsState time="145.00" id="A" programID="0" phase="2" state="rrrrrGGGggrrrrrGGGgg"/>
    <tlsState time="146.00" id="A" programID="0" phase="2" state="rrrrrGGGggrrrrrGGGgg"/>
    <tlsState time="147.00" id="A" programID="0" phase="2" state="rrrrrGGGggrrrrrGGGgg"/>
    <tlsState time="148.00" id="A" programID="0" phase="2" state="rrrrrGGGggrrrrrGGGgg"/>
    <tlsState time="149.00" id="A" programID="0" phase="2" state="rrrrrGGGggrrrrrGGGgg"/>
    <interval begin="140.00" end="150.00" id="nA0" nVehContrib="1" flow="360.00" occupancy="4.07" speed="12.27" length="5.00" nVehEntered="1"/>
    <interval begin="140.00" end="150.00" id="nA1" nVehContrib="1" flow="360.00" occupancy="4.31" speed="11.59" length="5.00" nVehEntered="1"/>
   <interval begin="140.00" end="150.00" id="wA0" sampledSeconds="28.46" nVehEntered="2" nVehLeft="3" nVehSeen="5" meanSpeed="2.72" meanTimeLoss="4.58" meanOccupancy="39.82" maxOccupancy="53.70" meanMaxJamLengthInVehicles="0.40" meanMaxJamLengthInMeters="2.11" maxJamLengthInVehicles="2" maxJamLengthInMeters="13.60" jamLengthInVehiclesSum="4" jamLengthInMetersSum="21.09" meanHaltingDuration="15.00" maxHaltingDuration="29.00" haltingDurationSum="60.00" meanIntervalHaltingDuration="1.25" maxIntervalHaltingDuration="2.00" intervalHaltingDurationSum="5.00" startedHalts="1.00" meanVehicleNumber="3.20" maxVehicleNumber="4" />
    <tlsState time="150.00" id="A" programID="0" phase="2" state="rrrrrGGGggrrrrrGGGgg"/>
    <tlsState time="151.00" id="A" programID="0" phase="2" state="rrrrrGGGggrrrrrGGGgg"/>
    <tlsState time="152.00" id="A" programID="0" phase="2" state="rrrrrGGGggrrrrrGGGgg"/>
    <tlsState time="153.00" id="A" programID="0" phase="2" state="rrrrrGGGggrrrrrGGGgg"/>
    <tlsState time="154.00" id="A" programID="0" phase="2" state="rrrrrGGGggrrrrrGGGgg"/>
    <tlsState time="155.00" id="A" programID="0" phase="2" state="rrrrrGGGggrrrrrGGGgg"/>
    <tlsState time="156.00" id="A" programID="0" phase="2" state="rrrrrGGGggrrrrrGGGgg"/>
    <tlsState time="157.00" id="A" programID="0" phase="2" state="rrrrrGGGggrrrrrGGGgg"/>
    <tlsState time="158.00" id="A" programID="0" phase="2" state="rrrrrGGGggrrrrrGGGgg"/>
    <tlsState time="159.00" id="A" programID="0" phase="2" state="rrrrrGGGggrrrrrGGGgg"/>
    <interval begin="150.00" end="160.00" id="nA0" nVehContrib="0" flow="0.00" occupancy="1.05" speed="-1.00" length="-1.00" nVehEntered="1"/>
    <interval begin="150.00" end="160.00" id="nA1" nVehContrib="0" flow="0.00" occupancy="0.00" speed="-1.00" length="-1.00" nVehEntered="0"/>
   <interval begin="150.00" end="160.00" id="wA0" sampledSeconds="6.69" nVehEntered="1" nVehLeft="3" nVehSeen="3" meanSpeed="9.58" meanTimeLoss="0.69" meanOccupancy="8.61" maxOccupancy="33.33" meanMaxJamLengthInVehicles="0.00" meanMaxJamLengthInMeters="0.00" maxJamLengthInVehicles="0" maxJamLengthInMeters="0.00" jamLengthInVehiclesSum="0" jamLengthInMetersSum="0.00" meanHaltingDuration="0.00" maxHaltingDuration="0.00" haltingDurationSum="0.00" meanIntervalHaltingDuration="0.00" maxIntervalHaltingDuration="0.00" intervalHaltingDurationSum="0.00" startedHalts="0.00" meanVehicleNumber="0.80" maxVehicleNumber="2" />
    <tlsState time="160.00" id="A" programID="0" phase="2" state="rrrrrGGGggrrrrrGGGgg"/>
    <tlsState time="161.00" id="A" programID="0" phase="2" state="rrrrrGGGggrrrrrGGGgg"/>
    <tlsState time="162.00" id="A" programID="0" phase="2" state="rrrrrGGGggrrrrrGGGgg"/>